<?xml version="1.0"?>
<VTKFile type="UnstructuredGrid" version="0.1" byte_order="LittleEndian" compressor="vtkZLibDataCompressor">
<UnstructuredGrid>
<Piece NumberOfPoints="43" NumberOfCells="8">
<PointData>
<DataArray type="Float64" Name="displacement"NumberOfComponents="3" format="ascii" >
0  0    0.
0.0408586  0.0557515    0.
0.0614801  0.207216    0.
0.0460612  0.439051    0.
-0.0122051  0.737055    0.
-0.11456  1.08464    0.
-0.258744  1.47077    0.
-0.441759  1.88398    0.
-0.658984  2.31818    0.
-0.905841  2.76632    0.
-1.17729  3.22509    0.
-1.46885  3.69011    0.
-1.77581  4.15976    0.
-2.09415  4.63105    0.
-2.41942  5.10318    0.
-2.74799  5.57415    0.
-3.07573  6.04313    0.
0  0    0.
-0.0262497  0.186066    0.
-0.163055  0.682871    0.
-0.448539  1.38013    0.
-0.871487  2.19706    0.
-1.40245  3.08146    0.
-2.00758  4.0019    0.
-2.65392  4.93928    0.
-3.31022  5.88008    0.
0  0    0.
-0.0518173  0.0465083    0.
-0.115896  0.173065    0.
-0.202127  0.372409    0.
-0.317079  0.631652    0.
-0.462954  0.942885    0.
-0.640955  1.29182    0.
-0.849484  1.67283    0.
-1.08606  2.07709    0.
-1.34705  2.50094    0.
-1.62902  2.93845    0.
-1.92791  3.38756    0.
-2.24011  3.8444    0.
-2.56153  4.30783    0.
-2.88864  4.7752    0.
-3.21729  5.24603    0.
-3.54418  5.71783    0.
</DataArray>
<DataArray type="Float64" Name="sigma_xx" NumberOfComponents="1" format="ascii" >
-0.108607
-0.108607
-0.0548897
-0.00117209
0.0446015
0.090375
0.113189
0.136002
0.150165
0.164327
0.171658
0.178989
0.181875
0.18476
0.188278
0.191796
0.191796
-0.108607
-0.0548897
0.0446015
0.113189
0.150165
0.171658
0.181875
0.188278
0.191796
-0.108607
-0.108607
-0.0548897
-0.00117209
0.0446015
0.090375
0.113189
0.136002
0.150165
0.164327
0.171658
0.178989
0.181875
0.18476
0.188278
0.191796
0.191796
</DataArray>
<DataArray type="Float64" Name="sigma_yy" NumberOfComponents="1" format="ascii" >
-0.156367
-0.156367
-0.166416
-0.176465
-0.133321
-0.090176
-0.0714659
-0.0527558
-0.0383168
-0.0238778
-0.0165318
-0.00918583
-0.00670875
-0.00423166
0.00806353
0.0203587
0.0203587
-0.156367
-0.166416
-0.133321
-0.0714659
-0.0383168
-0.0165318
-0.00670875
0.00806353
0.0203587
-0.156367
-0.156367
-0.166416
-0.176465
-0.133321
-0.090176
-0.0714659
-0.0527558
-0.0383168
-0.0238778
-0.0165318
-0.00918583
-0.00670875
-0.00423166
0.00806353
0.0203587
0.0203587
</DataArray>
<DataArray type="Float64" Name="sigma_xy" NumberOfComponents="1" format="ascii" >
0.216297
0.216297
0.203974
0.191652
0.175684
0.159716
0.143951
0.128186
0.116132
0.104077
0.0957911
0.0875051
0.0829231
0.0783411
0.0772437
0.0761464
0.0761464
0.216297
0.203974
0.175684
0.143951
0.116132
0.0957911
0.0829231
0.0772437
0.0761464
0.216297
0.216297
0.203974
0.191652
0.175684
0.159716
0.143951
0.128186
0.116132
0.104077
0.0957911
0.0875051
0.0829231
0.0783411
0.0772437
0.0761464
0.0761464
</DataArray>
</PointData>
<CellData>
</CellData>
<Points>
<DataArray type="Float64" Name="Points" NumberOfComponents="3" format="ascii">
0  0    0.
0.5  0    0.
1  0    0.
1.5  0    0.
2  0    0.
2.5  0    0.
3  0    0.
3.5  0    0.
4  0    0.
4.5  0    0.
5  0    0.
5.5  0    0.
6  0    0.
6.5  0    0.
7  0    0.
7.5  0    0.
8  0    0.
0  0.25    0.
1  0.25    0.
2  0.25    0.
3  0.25    0.
4  0.25    0.
5  0.25    0.
6  0.25    0.
7  0.25    0.
8  0.25    0.
0  0.5    0.
0.5  0.5    0.
1  0.5    0.
1.5  0.5    0.
2  0.5    0.
2.5  0.5    0.
3  0.5    0.
3.5  0.5    0.
4  0.5    0.
4.5  0.5    0.
5  0.5    0.
5.5  0.5    0.
6  0.5    0.
6.5  0.5    0.
7  0.5    0.
7.5  0.5    0.
8  0.5    0.
</DataArray>
</Points>
<Cells>
<DataArray type="Int64" Name="connectivity" format="ascii">
0  1  2  22  34  33  32  21  
2  3  4  23  36  35  34  22  
4  5  6  24  38  37  36  23  
6  7  8  25  40  39  38  24  
8  9  10  26  42  41  40  25  
10  11  12  27  44  43  42  26  
12  13  14  28  46  45  44  27  
14  15  16  29  48  47  46  28  
</DataArray>
<DataArray type="Int64" Name="offsets" format="ascii">
8
16
24
32
40
48
56
64
</DataArray>
<DataArray type="UInt8" Name="types" format="ascii" RangeMin="9" RangeMax="9">
9
9
9
9
9
9
9
9
</DataArray>
</Cells>
</Piece>
</UnstructuredGrid>
</VTKFile>
