<?xml version="1.0"?>
<VTKFile type="UnstructuredGrid" version="0.1" byte_order="LittleEndian" compressor="vtkZLibDataCompressor">
<UnstructuredGrid>
<Piece NumberOfPoints="43" NumberOfCells="8">
<PointData>
<DataArray type="Float64" Name="displacement"NumberOfComponents="3" format="ascii" >
0  0    0.
0.0517511  0.0781528    0.
0.0667775  0.28173    0.
0.0224382  0.581611    0.
-0.0868001  0.952496    0.
-0.257001  1.36984    0.
-0.480827  1.81925    0.
-0.750235  2.28725    0.
-1.05708  2.7683    0.
-1.39387  3.25596    0.
-1.75391  3.74827    0.
-2.1314  4.2419    0.
-2.52106  4.73645    0.
-2.91832  5.22974    0.
-3.31857  5.72191    0.
-3.71776  6.21169    0.
-4.11186  6.69868    0.
0  0    0.
-0.0461454  0.247344    0.
-0.26892  0.86865    0.
-0.697754  1.6886    0.
-1.29034  2.60392    0.
-1.99461  3.56221    0.
-2.76493  4.53888    0.
-3.56333  5.52204    0.
-4.35581  6.50333    0.
0  0    0.
-0.0716272  0.0616687    0.
-0.162359  0.223251    0.
-0.287778  0.472462    0.
-0.455426  0.787233    0.
-0.666169  1.15637    0.
-0.917769  1.55983    0.
-1.20615  1.99114    0.
-1.52572  2.44019    0.
-1.87095  2.90385    0.
-2.23654  3.37643    0.
-2.61751  3.85672    0.
-3.00931  4.34154    0.
-3.40749  4.83049    0.
-3.80801  5.32166    0.
-4.2065  5.81549    0.
-4.59881  6.30972    0.
</DataArray>
<DataArray type="Float64" Name="sigma_xx" NumberOfComponents="1" format="ascii" >
-0.175974
-0.175974
-0.0524545
0.0710654
0.153051
0.235036
0.267594
0.300153
0.316568
0.332982
0.339836
0.34669
0.347849
0.349009
0.353485
0.357962
0.357962
-0.175974
-0.0524545
0.153051
0.267594
0.316568
0.339836
0.347849
0.353485
0.357962
-0.175974
-0.175974
-0.0524545
0.0710654
0.153051
0.235036
0.267594
0.300153
0.316568
0.332982
0.339836
0.34669
0.347849
0.349009
0.353485
0.357962
0.357962
</DataArray>
<DataArray type="Float64" Name="sigma_yy" NumberOfComponents="1" format="ascii" >
-0.26847
-0.26847
-0.268477
-0.268484
-0.191016
-0.113548
-0.0853523
-0.057157
-0.0390603
-0.0209636
-0.0133926
-0.00582158
-0.00610131
-0.00638104
0.0082279
0.0228368
0.0228368
-0.26847
-0.268477
-0.191016
-0.0853523
-0.0390603
-0.0133926
-0.00610131
0.0082279
0.0228368
-0.26847
-0.26847
-0.268477
-0.268484
-0.191016
-0.113548
-0.0853523
-0.057157
-0.0390603
-0.0209636
-0.0133926
-0.00582158
-0.00610131
-0.00638104
0.0082279
0.0228368
0.0228368
</DataArray>
<DataArray type="Float64" Name="sigma_xy" NumberOfComponents="1" format="ascii" >
0.382696
0.382696
0.347068
0.311439
0.270799
0.23016
0.196462
0.162764
0.140372
0.11798
0.10474
0.0914989
0.0858919
0.0802848
0.081546
0.0828071
0.0828071
0.382696
0.347068
0.270799
0.196462
0.140372
0.10474
0.0858919
0.081546
0.0828071
0.382696
0.382696
0.347068
0.311439
0.270799
0.23016
0.196462
0.162764
0.140372
0.11798
0.10474
0.0914989
0.0858919
0.0802848
0.081546
0.0828071
0.0828071
</DataArray>
</PointData>
<CellData>
</CellData>
<Points>
<DataArray type="Float64" Name="Points" NumberOfComponents="3" format="ascii">
0  0    0.
0.5  0    0.
1  0    0.
1.5  0    0.
2  0    0.
2.5  0    0.
3  0    0.
3.5  0    0.
4  0    0.
4.5  0    0.
5  0    0.
5.5  0    0.
6  0    0.
6.5  0    0.
7  0    0.
7.5  0    0.
8  0    0.
0  0.25    0.
1  0.25    0.
2  0.25    0.
3  0.25    0.
4  0.25    0.
5  0.25    0.
6  0.25    0.
7  0.25    0.
8  0.25    0.
0  0.5    0.
0.5  0.5    0.
1  0.5    0.
1.5  0.5    0.
2  0.5    0.
2.5  0.5    0.
3  0.5    0.
3.5  0.5    0.
4  0.5    0.
4.5  0.5    0.
5  0.5    0.
5.5  0.5    0.
6  0.5    0.
6.5  0.5    0.
7  0.5    0.
7.5  0.5    0.
8  0.5    0.
</DataArray>
</Points>
<Cells>
<DataArray type="Int64" Name="connectivity" format="ascii">
0  1  2  22  34  33  32  21  
2  3  4  23  36  35  34  22  
4  5  6  24  38  37  36  23  
6  7  8  25  40  39  38  24  
8  9  10  26  42  41  40  25  
10  11  12  27  44  43  42  26  
12  13  14  28  46  45  44  27  
14  15  16  29  48  47  46  28  
</DataArray>
<DataArray type="Int64" Name="offsets" format="ascii">
8
16
24
32
40
48
56
64
</DataArray>
<DataArray type="UInt8" Name="types" format="ascii" RangeMin="9" RangeMax="9">
9
9
9
9
9
9
9
9
</DataArray>
</Cells>
</Piece>
</UnstructuredGrid>
</VTKFile>
