<?xml version="1.0"?>
<VTKFile type="UnstructuredGrid" version="0.1" byte_order="LittleEndian" compressor="vtkZLibDataCompressor">
<UnstructuredGrid>
<Piece NumberOfPoints="43" NumberOfCells="8">
<PointData>
<DataArray type="Float64" Name="displacement"NumberOfComponents="3" format="ascii" >
0  0    0.
0.0527704  0.0805526    0.
0.0668751  0.289393    0.
0.0191071  0.595724    0.
-0.095685  0.973036    0.
-0.272815  1.39607    0.
-0.504331  1.85024    0.
-0.781651  2.32203    0.
-1.09631  2.80606    0.
-1.44059  3.29603    0.
-1.8077  3.79015    0.
-2.19178  4.28522    0.
-2.58753  4.78094    0.
-2.99038  5.27522    0.
-3.39573  5.76824    0.
-3.7995  6.25881    0.
-4.1977  6.74651    0.
0  0    0.
-0.0484584  0.253534    0.
-0.280447  0.886164    0.
-0.723248  1.71588    0.
-1.33089  2.63801    0.
-2.04927  3.60077    0.
-2.832  4.5805    0.
-3.64096  5.56598    0.
-4.44206  6.54923    0.
0  0    0.
-0.0737161  0.063215    0.
-0.167237  0.228162    0.
-0.296723  0.481995    0.
-0.469692  0.801637    0.
-0.686769  1.1756    0.
-0.945269  1.58334    0.
-1.24084  2.01837    0.
-1.56756  2.47056    0.
-1.91977  2.93686    0.
-2.29203  3.41166    0.
-2.67928  3.89383    0.
-3.07695  4.38028    0.
-3.48057  4.87068    0.
-3.88609  5.36318    0.
-4.28912  5.85831    0.
-4.68542  6.35379    0.
</DataArray>
<DataArray type="Float64" Name="sigma_xx" NumberOfComponents="1" format="ascii" >
-0.183011
-0.183011
-0.0501343
0.0827421
0.168665
0.254589
0.287856
0.321124
0.33754
0.353955
0.360649
0.367342
0.368269
0.369196
0.373783
0.378371
0.378371
-0.183011
-0.0501343
0.168665
0.287856
0.33754
0.360649
0.368269
0.373783
0.378371
-0.183011
-0.183011
-0.0501343
0.0827421
0.168665
0.254589
0.287856
0.321124
0.33754
0.353955
0.360649
0.367342
0.368269
0.369196
0.373783
0.378371
0.378371
</DataArray>
<DataArray type="Float64" Name="sigma_yy" NumberOfComponents="1" format="ascii" >
-0.281267
-0.281267
-0.279441
-0.277615
-0.196282
-0.11495
-0.0859397
-0.0569294
-0.0386445
-0.0203596
-0.0128668
-0.00537409
-0.00601905
-0.006664
0.00826512
0.0231943
0.0231943
-0.281267
-0.279441
-0.196282
-0.0859397
-0.0386445
-0.0128668
-0.00601905
0.00826512
0.0231943
-0.281267
-0.281267
-0.279441
-0.277615
-0.196282
-0.11495
-0.0859397
-0.0569294
-0.0386445
-0.0203596
-0.0128668
-0.00537409
-0.00601905
-0.006664
0.00826512
0.0231943
0.0231943
</DataArray>
<DataArray type="Float64" Name="sigma_xy" NumberOfComponents="1" format="ascii" >
0.403196
0.403196
0.364067
0.324937
0.280986
0.237034
0.201241
0.165448
0.14202
0.118591
0.104975
0.091359
0.0858283
0.0802975
0.0820468
0.0837961
0.0837961
0.403196
0.364067
0.280986
0.201241
0.14202
0.104975
0.0858283
0.0820468
0.0837961
0.403196
0.403196
0.364067
0.324937
0.280986
0.237034
0.201241
0.165448
0.14202
0.118591
0.104975
0.091359
0.0858283
0.0802975
0.0820468
0.0837961
0.0837961
</DataArray>
</PointData>
<CellData>
</CellData>
<Points>
<DataArray type="Float64" Name="Points" NumberOfComponents="3" format="ascii">
0  0    0.
0.5  0    0.
1  0    0.
1.5  0    0.
2  0    0.
2.5  0    0.
3  0    0.
3.5  0    0.
4  0    0.
4.5  0    0.
5  0    0.
5.5  0    0.
6  0    0.
6.5  0    0.
7  0    0.
7.5  0    0.
8  0    0.
0  0.25    0.
1  0.25    0.
2  0.25    0.
3  0.25    0.
4  0.25    0.
5  0.25    0.
6  0.25    0.
7  0.25    0.
8  0.25    0.
0  0.5    0.
0.5  0.5    0.
1  0.5    0.
1.5  0.5    0.
2  0.5    0.
2.5  0.5    0.
3  0.5    0.
3.5  0.5    0.
4  0.5    0.
4.5  0.5    0.
5  0.5    0.
5.5  0.5    0.
6  0.5    0.
6.5  0.5    0.
7  0.5    0.
7.5  0.5    0.
8  0.5    0.
</DataArray>
</Points>
<Cells>
<DataArray type="Int64" Name="connectivity" format="ascii">
0  1  2  22  34  33  32  21  
2  3  4  23  36  35  34  22  
4  5  6  24  38  37  36  23  
6  7  8  25  40  39  38  24  
8  9  10  26  42  41  40  25  
10  11  12  27  44  43  42  26  
12  13  14  28  46  45  44  27  
14  15  16  29  48  47  46  28  
</DataArray>
<DataArray type="Int64" Name="offsets" format="ascii">
8
16
24
32
40
48
56
64
</DataArray>
<DataArray type="UInt8" Name="types" format="ascii" RangeMin="9" RangeMax="9">
9
9
9
9
9
9
9
9
</DataArray>
</Cells>
</Piece>
</UnstructuredGrid>
</VTKFile>
