<?xml version="1.0"?>
<VTKFile type="UnstructuredGrid" version="0.1" byte_order="LittleEndian" compressor="vtkZLibDataCompressor">
<UnstructuredGrid>
<Piece NumberOfPoints="43" NumberOfCells="8">
<PointData>
<DataArray type="Float64" Name="displacement"NumberOfComponents="3" format="ascii" >
0  0    0.
0.015121  0.0173204    0.
0.0280606  0.0668416    0.
0.0361643  0.146429    0.
0.0379197  0.254231    0.
0.0322098  0.387021    0.
0.0190417  0.54226    0.
-0.00219697  0.717056    0.
-0.0310881  0.909236    0.
-0.0676677  1.11612    0.
-0.111053  1.3357    0.
-0.160947  1.56554    0.
-0.216188  1.80383    0.
-0.276261  2.04833    0.
-0.339819  2.29734    0.
-0.40624  2.54887    0.
-0.474041  2.80114    0.
0  0    0.
-0.00306105  0.0633203    0.
-0.0206309  0.246286    0.
-0.061592  0.52798    0.
-0.129064  0.888524    0.
-0.221912  1.30924    0.
-0.335842  1.77298    0.
-0.464459  2.26391    0.
-0.600109  2.76715    0.
0  0    0.
-0.0163507  0.0162623    0.
-0.0344085  0.0627295    0.
-0.0551318  0.137946    0.
-0.0796754  0.240008    0.
-0.108472  0.366783    0.
-0.142731  0.515223    0.
-0.182282  0.683454    0.
-0.227532  0.868922    0.
-0.277823  1.06978    0.
-0.333174  1.28358    0.
-0.392595  1.50861    0.
-0.45578  1.74264    0.
-0.521492  1.98403    0.
-0.589229  2.23069    0.
-0.65761  2.48103    0.
-0.726194  2.7332    0.
</DataArray>
<DataArray type="Float64" Name="sigma_xx" NumberOfComponents="1" format="ascii" >
-0.0137751
-0.0137751
-0.0101899
-0.00660475
-0.00207806
0.00244863
0.00540763
0.00836663
0.0108701
0.0133736
0.0150955
0.0168173
0.0179403
0.0190632
0.0199631
0.020863
0.020863
-0.0137751
-0.0101899
-0.00207806
0.00540763
0.0108701
0.0150955
0.0179403
0.0199631
0.020863
-0.0137751
-0.0137751
-0.0101899
-0.00660475
-0.00207806
0.00244863
0.00540763
0.00836663
0.0108701
0.0133736
0.0150955
0.0168173
0.0179403
0.0190632
0.0199631
0.020863
0.020863
</DataArray>
<DataArray type="Float64" Name="sigma_yy" NumberOfComponents="1" format="ascii" >
-0.0188909
-0.0188909
-0.021869
-0.0248472
-0.0203844
-0.0159215
-0.0136185
-0.0113155
-0.00888974
-0.00646401
-0.00485751
-0.003251
-0.00178522
-0.000319445
0.0049025
0.0101245
0.0101245
-0.0188909
-0.021869
-0.0203844
-0.0136185
-0.00888974
-0.00485751
-0.00178522
0.0049025
0.0101245
-0.0188909
-0.0188909
-0.021869
-0.0248472
-0.0203844
-0.0159215
-0.0136185
-0.0113155
-0.00888974
-0.00646401
-0.00485751
-0.003251
-0.00178522
-0.000319445
0.0049025
0.0101245
0.0101245
</DataArray>
<DataArray type="Float64" Name="sigma_xy" NumberOfComponents="1" format="ascii" >
0.0444172
0.0444172
0.0439571
0.0434969
0.0430535
0.0426102
0.0419911
0.041372
0.0408083
0.0402446
0.0397714
0.0392983
0.0389691
0.03864
0.0384853
0.0383306
0.0383306
0.0444172
0.0439571
0.0430535
0.0419911
0.0408083
0.0397714
0.0389691
0.0384853
0.0383306
0.0444172
0.0444172
0.0439571
0.0434969
0.0430535
0.0426102
0.0419911
0.041372
0.0408083
0.0402446
0.0397714
0.0392983
0.0389691
0.03864
0.0384853
0.0383306
0.0383306
</DataArray>
</PointData>
<CellData>
</CellData>
<Points>
<DataArray type="Float64" Name="Points" NumberOfComponents="3" format="ascii">
0  0    0.
0.5  0    0.
1  0    0.
1.5  0    0.
2  0    0.
2.5  0    0.
3  0    0.
3.5  0    0.
4  0    0.
4.5  0    0.
5  0    0.
5.5  0    0.
6  0    0.
6.5  0    0.
7  0    0.
7.5  0    0.
8  0    0.
0  0.25    0.
1  0.25    0.
2  0.25    0.
3  0.25    0.
4  0.25    0.
5  0.25    0.
6  0.25    0.
7  0.25    0.
8  0.25    0.
0  0.5    0.
0.5  0.5    0.
1  0.5    0.
1.5  0.5    0.
2  0.5    0.
2.5  0.5    0.
3  0.5    0.
3.5  0.5    0.
4  0.5    0.
4.5  0.5    0.
5  0.5    0.
5.5  0.5    0.
6  0.5    0.
6.5  0.5    0.
7  0.5    0.
7.5  0.5    0.
8  0.5    0.
</DataArray>
</Points>
<Cells>
<DataArray type="Int64" Name="connectivity" format="ascii">
0  1  2  22  34  33  32  21  
2  3  4  23  36  35  34  22  
4  5  6  24  38  37  36  23  
6  7  8  25  40  39  38  24  
8  9  10  26  42  41  40  25  
10  11  12  27  44  43  42  26  
12  13  14  28  46  45  44  27  
14  15  16  29  48  47  46  28  
</DataArray>
<DataArray type="Int64" Name="offsets" format="ascii">
8
16
24
32
40
48
56
64
</DataArray>
<DataArray type="UInt8" Name="types" format="ascii" RangeMin="9" RangeMax="9">
9
9
9
9
9
9
9
9
</DataArray>
</Cells>
</Piece>
</UnstructuredGrid>
</VTKFile>
