<?xml version="1.0"?>
<VTKFile type="UnstructuredGrid" version="0.1" byte_order="LittleEndian" compressor="vtkZLibDataCompressor">
<UnstructuredGrid>
<Piece NumberOfPoints="43" NumberOfCells="8">
<PointData>
<DataArray type="Float64" Name="displacement"NumberOfComponents="3" format="ascii" >
0  0    0.
0.0344934  0.0447548    0.
0.055484  0.168597    0.
0.0511996  0.361411    0.
0.0157136  0.613768    0.
-0.0532561  0.913413    0.
-0.155037  1.25179    0.
-0.288628  1.61954    0.
-0.451164  2.01115    0.
-0.639793  2.42008    0.
-0.850715  2.8428    0.
-1.08063  3.27477    0.
-1.32556  3.71385    0.
-1.58222  4.15671    0.
-1.84664  4.60198    0.
-2.11569  5.04721    0.
-2.38548  5.49115    0.
0  0    0.
-0.0178858  0.153398    0.
-0.114356  0.574479    0.
-0.323504  1.18388    0.
-0.64442  1.9176    0.
-1.05921  2.72906    0.
-1.54277  3.58646    0.
-2.06791  4.46789    0.
-2.60732  5.35671    0.
0  0    0.
-0.0418588  0.0384975    0.
-0.0925703  0.145058    0.
-0.159128  0.314555    0.
-0.246826  0.538141    0.
-0.357797  0.809716    0.
-0.494107  1.11838    0.
-0.655025  1.45943    0.
-0.839481  1.82541    0.
-1.04489  2.21283    0.
-1.26901  2.61615    0.
-1.50855  3.03303    0.
-1.76076  3.45954    0.
-2.02204  3.89411    0.
-2.28948  4.33378    0.
-2.5593  4.77753    0.
-2.82881  5.2227    0.
</DataArray>
<DataArray type="Float64" Name="sigma_xx" NumberOfComponents="1" format="ascii" >
-0.0764473
-0.0764473
-0.045248
-0.0140487
0.0160419
0.0461325
0.0626894
0.0792462
0.0906317
0.102017
0.108523
0.115029
0.118134
0.121238
0.124217
0.127196
0.127196
-0.0764473
-0.045248
0.0160419
0.0626894
0.0906317
0.108523
0.118134
0.124217
0.127196
-0.0764473
-0.0764473
-0.045248
-0.0140487
0.0160419
0.0461325
0.0626894
0.0792462
0.0906317
0.102017
0.108523
0.115029
0.118134
0.121238
0.124217
0.127196
0.127196
</DataArray>
<DataArray type="Float64" Name="sigma_yy" NumberOfComponents="1" format="ascii" >
-0.107822
-0.107822
-0.118164
-0.128507
-0.09991
-0.0713132
-0.0580038
-0.0446943
-0.0333769
-0.0220594
-0.0157521
-0.00944485
-0.00639037
-0.00333589
0.00774847
0.0188328
0.0188328
-0.107822
-0.118164
-0.09991
-0.0580038
-0.0333769
-0.0157521
-0.00639037
0.00774847
0.0188328
-0.107822
-0.107822
-0.118164
-0.128507
-0.09991
-0.0713132
-0.0580038
-0.0446943
-0.0333769
-0.0220594
-0.0157521
-0.00944485
-0.00639037
-0.00333589
0.00774847
0.0188328
0.0188328
</DataArray>
<DataArray type="Float64" Name="sigma_xy" NumberOfComponents="1" format="ascii" >
0.152653
0.152653
0.146452
0.14025
0.131908
0.123565
0.114577
0.105589
0.0982544
0.0909197
0.0855327
0.0801457
0.0769049
0.0736641
0.0725523
0.0714404
0.0714404
0.152653
0.146452
0.131908
0.114577
0.0982544
0.0855327
0.0769049
0.0725523
0.0714404
0.152653
0.152653
0.146452
0.14025
0.131908
0.123565
0.114577
0.105589
0.0982544
0.0909197
0.0855327
0.0801457
0.0769049
0.0736641
0.0725523
0.0714404
0.0714404
</DataArray>
</PointData>
<CellData>
</CellData>
<Points>
<DataArray type="Float64" Name="Points" NumberOfComponents="3" format="ascii">
0  0    0.
0.5  0    0.
1  0    0.
1.5  0    0.
2  0    0.
2.5  0    0.
3  0    0.
3.5  0    0.
4  0    0.
4.5  0    0.
5  0    0.
5.5  0    0.
6  0    0.
6.5  0    0.
7  0    0.
7.5  0    0.
8  0    0.
0  0.25    0.
1  0.25    0.
2  0.25    0.
3  0.25    0.
4  0.25    0.
5  0.25    0.
6  0.25    0.
7  0.25    0.
8  0.25    0.
0  0.5    0.
0.5  0.5    0.
1  0.5    0.
1.5  0.5    0.
2  0.5    0.
2.5  0.5    0.
3  0.5    0.
3.5  0.5    0.
4  0.5    0.
4.5  0.5    0.
5  0.5    0.
5.5  0.5    0.
6  0.5    0.
6.5  0.5    0.
7  0.5    0.
7.5  0.5    0.
8  0.5    0.
</DataArray>
</Points>
<Cells>
<DataArray type="Int64" Name="connectivity" format="ascii">
0  1  2  22  34  33  32  21  
2  3  4  23  36  35  34  22  
4  5  6  24  38  37  36  23  
6  7  8  25  40  39  38  24  
8  9  10  26  42  41  40  25  
10  11  12  27  44  43  42  26  
12  13  14  28  46  45  44  27  
14  15  16  29  48  47  46  28  
</DataArray>
<DataArray type="Int64" Name="offsets" format="ascii">
8
16
24
32
40
48
56
64
</DataArray>
<DataArray type="UInt8" Name="types" format="ascii" RangeMin="9" RangeMax="9">
9
9
9
9
9
9
9
9
</DataArray>
</Cells>
</Piece>
</UnstructuredGrid>
</VTKFile>
