<?xml version="1.0"?>
<VTKFile type="UnstructuredGrid" version="0.1" byte_order="LittleEndian" compressor="vtkZLibDataCompressor">
<UnstructuredGrid>
<Piece NumberOfPoints="43" NumberOfCells="8">
<PointData>
<DataArray type="Float64" Name="displacement"NumberOfComponents="3" format="ascii" >
0  0    0.
0.0456692  0.0649945    0.
0.064693  0.238628    0.
0.0381464  0.50033    0.
-0.040767  0.831435    0.
-0.171603  1.21184    0.
-0.350222  1.62878    0.
-0.571602  2.0696    0.
-0.829582  2.52818    0.
-1.11823  2.99752    0.
-1.43165  3.47477    0.
-1.76466  3.95593    0.
-2.11217  4.43991    0.
-2.4698  4.92407    0.
-2.83297  5.40806    0.
-3.19777  5.89022    0.
-3.56011  6.37001    0.
0  0    0.
-0.0340523  0.212155    0.
-0.206115  0.764759    0.
-0.553392  1.52047    0.
-1.05292  2.38711    0.
-1.66534  3.31083    0.
-2.35082  4.26243    0.
-3.07341  5.22583    0.
-3.80017  6.19    0.
0  0    0.
-0.0600639  0.0529338    0.
-0.135264  0.194789    0.
-0.237895  0.416308    0.
-0.375204  0.7009    0.
-0.549057  1.0392    0.
-0.759454  1.41431    0.
-1.00384  1.82011    0.
-1.27841  2.24697    0.
-1.57871  2.69138    0.
-1.90039  3.14736    0.
-2.2389  3.61318    0.
-2.59014  4.08524    0.
-2.94977  4.56272    0.
-3.31398  5.04328    0.
-3.67846  5.52688    0.
-4.03953  6.01115    0.
</DataArray>
<DataArray type="Float64" Name="sigma_xx" NumberOfComponents="1" format="ascii" >
-0.136526
-0.136526
-0.0579093
0.020707
0.0810738
0.141441
0.168917
0.196394
0.212028
0.227663
0.235077
0.242492
0.244806
0.247119
0.251026
0.254932
0.254932
-0.136526
-0.0579093
0.0810738
0.168917
0.212028
0.235077
0.244806
0.251026
0.254932
-0.136526
-0.136526
-0.0579093
0.020707
0.0810738
0.141441
0.168917
0.196394
0.212028
0.227663
0.235077
0.242492
0.244806
0.247119
0.251026
0.254932
0.254932
</DataArray>
<DataArray type="Float64" Name="sigma_yy" NumberOfComponents="1" format="ascii" >
-0.200819
-0.200819
-0.208296
-0.215772
-0.158991
-0.10221
-0.0792148
-0.0562195
-0.0398247
-0.02343
-0.0157334
-0.00803685
-0.00650941
-0.00498197
0.00817973
0.0213414
0.0213414
-0.200819
-0.208296
-0.158991
-0.0792148
-0.0398247
-0.0157334
-0.00650941
0.00817973
0.0213414
-0.200819
-0.200819
-0.208296
-0.215772
-0.158991
-0.10221
-0.0792148
-0.0562195
-0.0398247
-0.02343
-0.0157334
-0.00803685
-0.00650941
-0.00498197
0.00817973
0.0213414
0.0213414
</DataArray>
<DataArray type="Float64" Name="sigma_xy" NumberOfComponents="1" format="ascii" >
0.279223
0.279223
0.25923
0.239238
0.214537
0.189837
0.167166
0.144496
0.128129
0.111762
0.101163
0.090564
0.0852059
0.0798477
0.0792767
0.0787057
0.0787057
0.279223
0.25923
0.214537
0.167166
0.128129
0.101163
0.0852059
0.0792767
0.0787057
0.279223
0.279223
0.25923
0.239238
0.214537
0.189837
0.167166
0.144496
0.128129
0.111762
0.101163
0.090564
0.0852059
0.0798477
0.0792767
0.0787057
0.0787057
</DataArray>
</PointData>
<CellData>
</CellData>
<Points>
<DataArray type="Float64" Name="Points" NumberOfComponents="3" format="ascii">
0  0    0.
0.5  0    0.
1  0    0.
1.5  0    0.
2  0    0.
2.5  0    0.
3  0    0.
3.5  0    0.
4  0    0.
4.5  0    0.
5  0    0.
5.5  0    0.
6  0    0.
6.5  0    0.
7  0    0.
7.5  0    0.
8  0    0.
0  0.25    0.
1  0.25    0.
2  0.25    0.
3  0.25    0.
4  0.25    0.
5  0.25    0.
6  0.25    0.
7  0.25    0.
8  0.25    0.
0  0.5    0.
0.5  0.5    0.
1  0.5    0.
1.5  0.5    0.
2  0.5    0.
2.5  0.5    0.
3  0.5    0.
3.5  0.5    0.
4  0.5    0.
4.5  0.5    0.
5  0.5    0.
5.5  0.5    0.
6  0.5    0.
6.5  0.5    0.
7  0.5    0.
7.5  0.5    0.
8  0.5    0.
</DataArray>
</Points>
<Cells>
<DataArray type="Int64" Name="connectivity" format="ascii">
0  1  2  22  34  33  32  21  
2  3  4  23  36  35  34  22  
4  5  6  24  38  37  36  23  
6  7  8  25  40  39  38  24  
8  9  10  26  42  41  40  25  
10  11  12  27  44  43  42  26  
12  13  14  28  46  45  44  27  
14  15  16  29  48  47  46  28  
</DataArray>
<DataArray type="Int64" Name="offsets" format="ascii">
8
16
24
32
40
48
56
64
</DataArray>
<DataArray type="UInt8" Name="types" format="ascii" RangeMin="9" RangeMax="9">
9
9
9
9
9
9
9
9
</DataArray>
</Cells>
</Piece>
</UnstructuredGrid>
</VTKFile>
