<?xml version="1.0"?>
<VTKFile type="UnstructuredGrid" version="0.1" byte_order="LittleEndian" compressor="vtkZLibDataCompressor">
<UnstructuredGrid>
<Piece NumberOfPoints="43" NumberOfCells="8">
<PointData>
<DataArray type="Float64" Name="displacement"NumberOfComponents="3" format="ascii" >
0  0    0.
0.0506763  0.0756879    0.
0.0665909  0.273797    0.
0.0257217  0.566896    0.
-0.0778103  0.930929    0.
-0.240806  1.34212    0.
-0.456555  1.7863    0.
-0.717574  2.25008    0.
-1.01606  2.72777    0.
-1.34477  3.21278    0.
-1.69713  3.70299    0.
-2.06743  4.19493    0.
-2.45038  4.68808    0.
-2.84144  5.1802    0.
-3.23598  5.67133    0.
-3.62999  6.16015    0.
-4.01942  6.64625    0.
0  0    0.
-0.0438022  0.240916    0.
-0.257093  0.850225    0.
-0.671291  1.65958    0.
-1.24784  2.56733    0.
-1.93684  3.52054    0.
-2.69354  4.49369    0.
-3.48017  5.47414    0.
-4.26287  6.45314    0.
0  0    0.
-0.0694757  0.060066    0.
-0.157329  0.218121    0.
-0.278541  0.462456    0.
-0.440657  0.772036    0.
-0.644769  1.13598    0.
-0.889093  1.53479    0.
-1.16984  1.96201    0.
-1.48174  2.40759    0.
-1.81945  2.86831    0.
-2.17781  3.33841    0.
-2.55191  3.81656    0.
-2.93725  4.29952    0.
-3.32938  4.78683    0.
-3.72432  5.27648    0.
-4.11768  5.76885    0.
-4.50541  6.26164    0.
</DataArray>
<DataArray type="Float64" Name="sigma_xx" NumberOfComponents="1" format="ascii" >
-0.168685
-0.168685
-0.0544071
0.0598708
0.137798
0.215726
0.247487
0.279249
0.295622
0.311995
0.318997
0.325999
0.327392
0.328786
0.33315
0.337515
0.337515
-0.168685
-0.0544071
0.137798
0.247487
0.295622
0.318997
0.327392
0.33315
0.337515
-0.168685
-0.168685
-0.0544071
0.0598708
0.137798
0.215726
0.247487
0.279249
0.295622
0.311995
0.318997
0.325999
0.327392
0.328786
0.33315
0.337515
0.337515
</DataArray>
<DataArray type="Float64" Name="sigma_yy" NumberOfComponents="1" format="ascii" >
-0.255463
-0.255463
-0.257204
-0.258944
-0.18542
-0.111897
-0.08458
-0.0572631
-0.0393961
-0.021529
-0.0138922
-0.00625542
-0.00616928
-0.00608314
0.00821652
0.0225162
0.0225162
-0.255463
-0.257204
-0.18542
-0.08458
-0.0393961
-0.0138922
-0.00616928
0.00821652
0.0225162
-0.255463
-0.255463
-0.257204
-0.258944
-0.18542
-0.111897
-0.08458
-0.0572631
-0.0393961
-0.021529
-0.0138922
-0.00625542
-0.00616928
-0.00608314
0.00821652
0.0225162
0.0225162
</DataArray>
<DataArray type="Float64" Name="sigma_xy" NumberOfComponents="1" format="ascii" >
0.362134
0.362134
0.329889
0.297644
0.260285
0.222926
0.191362
0.159799
0.138497
0.117195
0.104376
0.0915557
0.0859095
0.0802633
0.0810737
0.081884
0.081884
0.362134
0.329889
0.260285
0.191362
0.138497
0.104376
0.0859095
0.0810737
0.081884
0.362134
0.362134
0.329889
0.297644
0.260285
0.222926
0.191362
0.159799
0.138497
0.117195
0.104376
0.0915557
0.0859095
0.0802633
0.0810737
0.081884
0.081884
</DataArray>
</PointData>
<CellData>
</CellData>
<Points>
<DataArray type="Float64" Name="Points" NumberOfComponents="3" format="ascii">
0  0    0.
0.5  0    0.
1  0    0.
1.5  0    0.
2  0    0.
2.5  0    0.
3  0    0.
3.5  0    0.
4  0    0.
4.5  0    0.
5  0    0.
5.5  0    0.
6  0    0.
6.5  0    0.
7  0    0.
7.5  0    0.
8  0    0.
0  0.25    0.
1  0.25    0.
2  0.25    0.
3  0.25    0.
4  0.25    0.
5  0.25    0.
6  0.25    0.
7  0.25    0.
8  0.25    0.
0  0.5    0.
0.5  0.5    0.
1  0.5    0.
1.5  0.5    0.
2  0.5    0.
2.5  0.5    0.
3  0.5    0.
3.5  0.5    0.
4  0.5    0.
4.5  0.5    0.
5  0.5    0.
5.5  0.5    0.
6  0.5    0.
6.5  0.5    0.
7  0.5    0.
7.5  0.5    0.
8  0.5    0.
</DataArray>
</Points>
<Cells>
<DataArray type="Int64" Name="connectivity" format="ascii">
0  1  2  22  34  33  32  21  
2  3  4  23  36  35  34  22  
4  5  6  24  38  37  36  23  
6  7  8  25  40  39  38  24  
8  9  10  26  42  41  40  25  
10  11  12  27  44  43  42  26  
12  13  14  28  46  45  44  27  
14  15  16  29  48  47  46  28  
</DataArray>
<DataArray type="Int64" Name="offsets" format="ascii">
8
16
24
32
40
48
56
64
</DataArray>
<DataArray type="UInt8" Name="types" format="ascii" RangeMin="9" RangeMax="9">
9
9
9
9
9
9
9
9
</DataArray>
</Cells>
</Piece>
</UnstructuredGrid>
</VTKFile>
