<?xml version="1.0"?>
<VTKFile type="UnstructuredGrid" version="0.1" byte_order="LittleEndian" compressor="vtkZLibDataCompressor">
<UnstructuredGrid>
<Piece NumberOfPoints="43" NumberOfCells="8">
<PointData>
<DataArray type="Float64" Name="displacement"NumberOfComponents="3" format="ascii" >
0  0    0.
0.0206259  0.0243875    0.
0.0370126  0.093687    0.
0.044543  0.204359    0.
0.0405499  0.353259    0.
0.023307  0.535269    0.
-0.00731601  0.746532    0.
-0.0519803  0.982573    0.
-0.109951  1.24026    0.
-0.180877  1.51572    0.
-0.263273  1.80628    0.
-0.356255  2.10861    0.
-0.457926  2.42052    0.
-0.567099  2.73912    0.
-0.681626  3.06248    0.
-0.800201  3.38815    0.
-0.920511  3.71419    0.
0  0    0.
-0.00587256  0.0877399    0.
-0.0391832  0.338769    0.
-0.115746  0.720465    0.
-0.240063  1.20269    0.
-0.408899  1.75869    0.
-0.613777  2.36546    0.
-0.843057  3.00317    0.
-1.0834  3.65401    0.
0  0    0.
-0.0229961  0.0223528    0.
-0.0491912  0.0858286    0.
-0.0807504  0.188256    0.
-0.119832  0.32646    0.
-0.167361  0.497413    0.
-0.225087  0.696339    0.
-0.292859  0.920636    0.
-0.371037  1.16647    0.
-0.458597  1.43142    0.
-0.555213  1.71204    0.
-0.659321  2.00622    0.
-0.770094  2.31099    0.
-0.885591  2.62448    0.
-1.0047  2.94405    0.
-1.12526  3.26797    0.
-1.24625  3.59391    0.
</DataArray>
<DataArray type="Float64" Name="sigma_xx" NumberOfComponents="1" format="ascii" >
-0.0261902
-0.0261902
-0.0186587
-0.0111271
-0.00215547
0.00681621
0.0124983
0.0181803
0.0227878
0.0273954
0.0304538
0.0335122
0.0353704
0.0372285
0.0387251
0.0402216
0.0402216
-0.0261902
-0.0186587
-0.00215547
0.0124983
0.0227878
0.0304538
0.0353704
0.0387251
0.0402216
-0.0261902
-0.0261902
-0.0186587
-0.0111271
-0.00215547
0.00681621
0.0124983
0.0181803
0.0227878
0.0273954
0.0304538
0.0335122
0.0353704
0.0372285
0.0387251
0.0402216
0.0402216
</DataArray>
<DataArray type="Float64" Name="sigma_yy" NumberOfComponents="1" format="ascii" >
-0.0360741
-0.0360741
-0.0413217
-0.0465694
-0.03781
-0.0290506
-0.0246011
-0.0201515
-0.0156786
-0.0112056
-0.00834281
-0.00547998
-0.00329408
-0.00110819
0.00606901
0.0132462
0.0132462
-0.0360741
-0.0413217
-0.03781
-0.0246011
-0.0156786
-0.00834281
-0.00329408
0.00606901
0.0132462
-0.0360741
-0.0360741
-0.0413217
-0.0465694
-0.03781
-0.0290506
-0.0246011
-0.0201515
-0.0156786
-0.0112056
-0.00834281
-0.00547998
-0.00329408
-0.00110819
0.00606901
0.0132462
0.0132462
</DataArray>
<DataArray type="Float64" Name="sigma_xy" NumberOfComponents="1" format="ascii" >
0.0663575
0.0663575
0.0652849
0.0642122
0.0629134
0.0616146
0.0599567
0.0582989
0.0568114
0.055324
0.0541112
0.0528985
0.0520803
0.0512621
0.0508924
0.0505228
0.0505228
0.0663575
0.0652849
0.0629134
0.0599567
0.0568114
0.0541112
0.0520803
0.0508924
0.0505228
0.0663575
0.0663575
0.0652849
0.0642122
0.0629134
0.0616146
0.0599567
0.0582989
0.0568114
0.055324
0.0541112
0.0528985
0.0520803
0.0512621
0.0508924
0.0505228
0.0505228
</DataArray>
</PointData>
<CellData>
</CellData>
<Points>
<DataArray type="Float64" Name="Points" NumberOfComponents="3" format="ascii">
0  0    0.
0.5  0    0.
1  0    0.
1.5  0    0.
2  0    0.
2.5  0    0.
3  0    0.
3.5  0    0.
4  0    0.
4.5  0    0.
5  0    0.
5.5  0    0.
6  0    0.
6.5  0    0.
7  0    0.
7.5  0    0.
8  0    0.
0  0.25    0.
1  0.25    0.
2  0.25    0.
3  0.25    0.
4  0.25    0.
5  0.25    0.
6  0.25    0.
7  0.25    0.
8  0.25    0.
0  0.5    0.
0.5  0.5    0.
1  0.5    0.
1.5  0.5    0.
2  0.5    0.
2.5  0.5    0.
3  0.5    0.
3.5  0.5    0.
4  0.5    0.
4.5  0.5    0.
5  0.5    0.
5.5  0.5    0.
6  0.5    0.
6.5  0.5    0.
7  0.5    0.
7.5  0.5    0.
8  0.5    0.
</DataArray>
</Points>
<Cells>
<DataArray type="Int64" Name="connectivity" format="ascii">
0  1  2  22  34  33  32  21  
2  3  4  23  36  35  34  22  
4  5  6  24  38  37  36  23  
6  7  8  25  40  39  38  24  
8  9  10  26  42  41  40  25  
10  11  12  27  44  43  42  26  
12  13  14  28  46  45  44  27  
14  15  16  29  48  47  46  28  
</DataArray>
<DataArray type="Int64" Name="offsets" format="ascii">
8
16
24
32
40
48
56
64
</DataArray>
<DataArray type="UInt8" Name="types" format="ascii" RangeMin="9" RangeMax="9">
9
9
9
9
9
9
9
9
</DataArray>
</Cells>
</Piece>
</UnstructuredGrid>
</VTKFile>
