<?xml version="1.0"?>
<VTKFile type="UnstructuredGrid" version="0.1" byte_order="LittleEndian" compressor="vtkZLibDataCompressor">
<UnstructuredGrid>
<Piece NumberOfPoints="43" NumberOfCells="8">
<PointData>
<DataArray type="Float64" Name="displacement"NumberOfComponents="3" format="ascii" >
0  0    0.
0.0441913  0.0620577    0.
0.0638397  0.228751    0.
0.0409743  0.481246    0.
-0.0312834  0.802326    0.
-0.153101  1.17298    0.
-0.320979  1.58094    0.
-0.53056  2.01388    0.
-0.776167  2.46565    0.
-1.05228  2.92917    0.
-1.35325  3.40145    0.
-1.67409  3.87833    0.
-2.0098  4.35857    0.
-2.3561  4.83942    0.
-2.70843  5.32039    0.
-3.06297  5.7997    0.
-3.41558  6.27675    0.
0  0    0.
-0.031505  0.203995    0.
-0.192292  0.739594    0.
-0.520285  1.47808    0.
-0.996488  2.33058    0.
-1.58463  3.24349    0.
-2.24664  4.18678    0.
-2.94735  5.14337    0.
-3.65421  6.1015    0.
0  0    0.
-0.0574555  0.0509201    0.
-0.129138  0.188053    0.
-0.226586  0.40279    0.
-0.356871  0.67974    0.
-0.522005  1.00999    0.
-0.722409  1.37743    0.
-0.955847  1.77607    0.
-1.21894  2.19651    0.
-1.50748  2.63518    0.
-1.81741  3.08606    0.
-2.1443  3.54733    0.
-2.4842  4.01528    0.
-2.83281  4.48902    0.
-3.18641  4.96608    0.
-3.54073  5.44631    0.
-3.8922  5.92728    0.
</DataArray>
<DataArray type="Float64" Name="sigma_xx" NumberOfComponents="1" format="ascii" >
-0.127628
-0.127628
-0.057521
0.0125859
0.0682243
0.123863
0.149944
0.176026
0.191283
0.206539
0.213981
0.221423
0.223948
0.226474
0.230258
0.234043
0.234043
-0.127628
-0.057521
0.0682243
0.149944
0.191283
0.213981
0.223948
0.230258
0.234043
-0.127628
-0.127628
-0.057521
0.0125859
0.0682243
0.123863
0.149944
0.176026
0.191283
0.206539
0.213981
0.221423
0.223948
0.226474
0.230258
0.234043
0.234043
</DataArray>
<DataArray type="Float64" Name="sigma_yy" NumberOfComponents="1" format="ascii" >
-0.186385
-0.186385
-0.194918
-0.203451
-0.151108
-0.0987651
-0.0770841
-0.0554031
-0.0395574
-0.0237117
-0.0160787
-0.00844575
-0.00657923
-0.00471271
0.0081726
0.0210579
0.0210579
-0.186385
-0.194918
-0.151108
-0.0770841
-0.0395574
-0.0160787
-0.00657923
0.0081726
0.0210579
-0.186385
-0.186385
-0.194918
-0.203451
-0.151108
-0.0987651
-0.0770841
-0.0554031
-0.0395574
-0.0237117
-0.0160787
-0.00844575
-0.00657923
-0.00471271
0.0081726
0.0210579
0.0210579
</DataArray>
<DataArray type="Float64" Name="sigma_xy" NumberOfComponents="1" format="ascii" >
0.258322
0.258322
0.241042
0.223763
0.202066
0.180369
0.15999
0.139611
0.124625
0.109639
0.0997455
0.0898516
0.0846931
0.0795347
0.0787354
0.0779361
0.0779361
0.258322
0.241042
0.202066
0.15999
0.124625
0.0997455
0.0846931
0.0787354
0.0779361
0.258322
0.258322
0.241042
0.223763
0.202066
0.180369
0.15999
0.139611
0.124625
0.109639
0.0997455
0.0898516
0.0846931
0.0795347
0.0787354
0.0779361
0.0779361
</DataArray>
</PointData>
<CellData>
</CellData>
<Points>
<DataArray type="Float64" Name="Points" NumberOfComponents="3" format="ascii">
0  0    0.
0.5  0    0.
1  0    0.
1.5  0    0.
2  0    0.
2.5  0    0.
3  0    0.
3.5  0    0.
4  0    0.
4.5  0    0.
5  0    0.
5.5  0    0.
6  0    0.
6.5  0    0.
7  0    0.
7.5  0    0.
8  0    0.
0  0.25    0.
1  0.25    0.
2  0.25    0.
3  0.25    0.
4  0.25    0.
5  0.25    0.
6  0.25    0.
7  0.25    0.
8  0.25    0.
0  0.5    0.
0.5  0.5    0.
1  0.5    0.
1.5  0.5    0.
2  0.5    0.
2.5  0.5    0.
3  0.5    0.
3.5  0.5    0.
4  0.5    0.
4.5  0.5    0.
5  0.5    0.
5.5  0.5    0.
6  0.5    0.
6.5  0.5    0.
7  0.5    0.
7.5  0.5    0.
8  0.5    0.
</DataArray>
</Points>
<Cells>
<DataArray type="Int64" Name="connectivity" format="ascii">
0  1  2  22  34  33  32  21  
2  3  4  23  36  35  34  22  
4  5  6  24  38  37  36  23  
6  7  8  25  40  39  38  24  
8  9  10  26  42  41  40  25  
10  11  12  27  44  43  42  26  
12  13  14  28  46  45  44  27  
14  15  16  29  48  47  46  28  
</DataArray>
<DataArray type="Int64" Name="offsets" format="ascii">
8
16
24
32
40
48
56
64
</DataArray>
<DataArray type="UInt8" Name="types" format="ascii" RangeMin="9" RangeMax="9">
9
9
9
9
9
9
9
9
</DataArray>
</Cells>
</Piece>
</UnstructuredGrid>
</VTKFile>
