<?xml version="1.0"?>
<VTKFile type="UnstructuredGrid" version="0.1" byte_order="LittleEndian" compressor="vtkZLibDataCompressor">
<UnstructuredGrid>
<Piece NumberOfPoints="43" NumberOfCells="8">
<PointData>
<DataArray type="Float64" Name="displacement"NumberOfComponents="3" format="ascii" >
0  0    0.
0.0537368  0.082888    0.
0.0668921  0.296792    0.
0.015746  0.609251    0.
-0.104438  0.992587    0.
-0.288215  1.42087    0.
-0.527033  1.87939    0.
-0.811793  2.35456    0.
-1.13374  2.84123    0.
-1.48495  3.33321    0.
-1.85854  3.82888    0.
-2.24862  4.32517    0.
-2.64988  4.82188    0.
-3.05775  5.31698    0.
-3.46764  5.81071    0.
-3.87546  6.30192    0.
-4.27721  6.7902    0.
0  0    0.
-0.0507374  0.259493    0.
-0.291658  0.90281    0.
-0.747755  1.74152    0.
-1.36949  2.66977    0.
-2.10086  3.63647    0.
-2.89487  4.61885    0.
-3.71328  5.60633    0.
-4.52192  6.59124    0.
0  0    0.
-0.0757431  0.0647072    0.
-0.171962  0.232865    0.
-0.305374  0.491078    0.
-0.483449  0.81529    0.
-0.706565  1.19374    0.
-0.971592  1.60542    0.
-1.2739  2.04385    0.
-1.6073  2.49887    0.
-1.96596  2.96754    0.
-2.34433  3.44431    0.
-2.73731  3.92814    0.
-3.14029  4.41604    0.
-3.5488  4.90771    0.
-3.95878  5.40138    0.
-4.36581  5.89765    0.
-4.76557  6.39424    0.
</DataArray>
<DataArray type="Float64" Name="sigma_xx" NumberOfComponents="1" format="ascii" >
-0.189779
-0.189779
-0.0474616
0.0948556
0.184582
0.274307
0.308192
0.342077
0.358457
0.374837
0.381367
0.387897
0.388594
0.389291
0.393991
0.39869
0.39869
-0.189779
-0.0474616
0.184582
0.308192
0.358457
0.381367
0.388594
0.393991
0.39869
-0.189779
-0.189779
-0.0474616
0.0948556
0.184582
0.274307
0.308192
0.342077
0.358457
0.374837
0.381367
0.387897
0.388594
0.389291
0.393991
0.39869
0.39869
</DataArray>
<DataArray type="Float64" Name="sigma_yy" NumberOfComponents="1" format="ascii" >
-0.293837
-0.293837
-0.290095
-0.286353
-0.201257
-0.116162
-0.0864085
-0.0566551
-0.03822
-0.0197849
-0.0123804
-0.00497595
-0.00598215
-0.00698835
0.00827823
0.0235448
0.0235448
-0.293837
-0.290095
-0.201257
-0.0864085
-0.03822
-0.0123804
-0.00598215
0.00827823
0.0235448
-0.293837
-0.293837
-0.290095
-0.286353
-0.201257
-0.116162
-0.0864085
-0.0566551
-0.03822
-0.0197849
-0.0123804
-0.00497595
-0.00598215
-0.00698835
0.00827823
0.0235448
0.0235448
</DataArray>
<DataArray type="Float64" Name="sigma_xy" NumberOfComponents="1" format="ascii" >
0.423633
0.423633
0.380888
0.338144
0.290853
0.243562
0.205718
0.167873
0.143461
0.119049
0.105105
0.0911604
0.085743
0.0803257
0.0826
0.0848743
0.0848743
0.423633
0.380888
0.290853
0.205718
0.143461
0.105105
0.085743
0.0826
0.0848743
0.423633
0.423633
0.380888
0.338144
0.290853
0.243562
0.205718
0.167873
0.143461
0.119049
0.105105
0.0911604
0.085743
0.0803257
0.0826
0.0848743
0.0848743
</DataArray>
</PointData>
<CellData>
</CellData>
<Points>
<DataArray type="Float64" Name="Points" NumberOfComponents="3" format="ascii">
0  0    0.
0.5  0    0.
1  0    0.
1.5  0    0.
2  0    0.
2.5  0    0.
3  0    0.
3.5  0    0.
4  0    0.
4.5  0    0.
5  0    0.
5.5  0    0.
6  0    0.
6.5  0    0.
7  0    0.
7.5  0    0.
8  0    0.
0  0.25    0.
1  0.25    0.
2  0.25    0.
3  0.25    0.
4  0.25    0.
5  0.25    0.
6  0.25    0.
7  0.25    0.
8  0.25    0.
0  0.5    0.
0.5  0.5    0.
1  0.5    0.
1.5  0.5    0.
2  0.5    0.
2.5  0.5    0.
3  0.5    0.
3.5  0.5    0.
4  0.5    0.
4.5  0.5    0.
5  0.5    0.
5.5  0.5    0.
6  0.5    0.
6.5  0.5    0.
7  0.5    0.
7.5  0.5    0.
8  0.5    0.
</DataArray>
</Points>
<Cells>
<DataArray type="Int64" Name="connectivity" format="ascii">
0  1  2  22  34  33  32  21  
2  3  4  23  36  35  34  22  
4  5  6  24  38  37  36  23  
6  7  8  25  40  39  38  24  
8  9  10  26  42  41  40  25  
10  11  12  27  44  43  42  26  
12  13  14  28  46  45  44  27  
14  15  16  29  48  47  46  28  
</DataArray>
<DataArray type="Int64" Name="offsets" format="ascii">
8
16
24
32
40
48
56
64
</DataArray>
<DataArray type="UInt8" Name="types" format="ascii" RangeMin="9" RangeMax="9">
9
9
9
9
9
9
9
9
</DataArray>
</Cells>
</Piece>
</UnstructuredGrid>
</VTKFile>
