<?xml version="1.0"?>
<VTKFile type="UnstructuredGrid" version="0.1" byte_order="LittleEndian" compressor="vtkZLibDataCompressor">
<UnstructuredGrid>
<Piece NumberOfPoints="43" NumberOfCells="8">
<PointData>
<DataArray type="Float64" Name="displacement"NumberOfComponents="3" format="ascii" >
0  0    0.
0.0389559  0.05233    0.
0.0598816  0.195345    0.
0.0482038  0.415451    0.
-0.00270835  0.700009    0.
-0.0945348  1.03378    0.
-0.225595  1.40645    0.
-0.393575  1.80715    0.
-0.594421  2.2299    0.
-0.824089  2.66773    0.
-1.0779  3.11722    0.
-1.35172  3.5739    0.
-1.64101  4.03596    0.
-1.94195  4.50029    0.
-2.25021  4.96592    0.
-2.56227  5.43069    0.
-2.87404  5.89367    0.
0  0    0.
-0.0235314  0.176099    0.
-0.147531  0.650482    0.
-0.409454  1.32272    0.
-0.801789  2.11694    0.
-1.29879  2.98222    0.
-1.86916  3.88673    0.
-2.48149  4.81031    0.
-3.10548  5.73848    0.
0  0    0.
-0.0487365  0.0440612    0.
-0.108667  0.164617    0.
-0.188779  0.355103    0.
-0.295296  0.603941    0.
-0.430456  0.90378    0.
-0.595801  1.24136    0.
-0.790043  1.61132    0.
-1.01116  2.00519    0.
-1.25587  2.41935    0.
-1.52107  2.84792    0.
-1.80294  3.28873    0.
-2.0981  3.73788    0.
-2.40258  4.19408    0.
-2.71302  4.65458    0.
-3.02535  5.11872    0.
-3.33645  5.58397    0.
</DataArray>
<DataArray type="Float64" Name="sigma_xx" NumberOfComponents="1" format="ascii" >
-0.0984116
-0.0984116
-0.0525138
-0.00661613
0.0340362
0.0746884
0.0956093
0.11653
0.129942
0.143354
0.15052
0.157685
0.160702
0.163718
0.167082
0.170446
0.170446
-0.0984116
-0.0525138
0.0340362
0.0956093
0.129942
0.15052
0.160702
0.167082
0.170446
-0.0984116
-0.0984116
-0.0525138
-0.00661613
0.0340362
0.0746884
0.0956093
0.11653
0.129942
0.143354
0.15052
0.157685
0.160702
0.163718
0.167082
0.170446
0.170446
</DataArray>
<DataArray type="Float64" Name="sigma_yy" NumberOfComponents="1" format="ascii" >
-0.1407
-0.1407
-0.151149
-0.161597
-0.123206
-0.0848152
-0.0677721
-0.050729
-0.0371753
-0.0236216
-0.0165225
-0.00942338
-0.00669336
-0.00396333
0.00799296
0.0199493
0.0199493
-0.1407
-0.151149
-0.123206
-0.0677721
-0.0371753
-0.0165225
-0.00669336
0.00799296
0.0199493
-0.1407
-0.1407
-0.151149
-0.161597
-0.123206
-0.0848152
-0.0677721
-0.050729
-0.0371753
-0.0236216
-0.0165225
-0.00942338
-0.00669336
-0.00396333
0.00799296
0.0199493
0.0199493
</DataArray>
<DataArray type="Float64" Name="sigma_xy" NumberOfComponents="1" format="ascii" >
0.195168
0.195168
0.185071
0.174975
0.1617
0.148425
0.134957
0.12149
0.110976
0.100462
0.0930806
0.0856989
0.0814993
0.0772998
0.0761378
0.0749758
0.0749758
0.195168
0.185071
0.1617
0.134957
0.110976
0.0930806
0.0814993
0.0761378
0.0749758
0.195168
0.195168
0.185071
0.174975
0.1617
0.148425
0.134957
0.12149
0.110976
0.100462
0.0930806
0.0856989
0.0814993
0.0772998
0.0761378
0.0749758
0.0749758
</DataArray>
</PointData>
<CellData>
</CellData>
<Points>
<DataArray type="Float64" Name="Points" NumberOfComponents="3" format="ascii">
0  0    0.
0.5  0    0.
1  0    0.
1.5  0    0.
2  0    0.
2.5  0    0.
3  0    0.
3.5  0    0.
4  0    0.
4.5  0    0.
5  0    0.
5.5  0    0.
6  0    0.
6.5  0    0.
7  0    0.
7.5  0    0.
8  0    0.
0  0.25    0.
1  0.25    0.
2  0.25    0.
3  0.25    0.
4  0.25    0.
5  0.25    0.
6  0.25    0.
7  0.25    0.
8  0.25    0.
0  0.5    0.
0.5  0.5    0.
1  0.5    0.
1.5  0.5    0.
2  0.5    0.
2.5  0.5    0.
3  0.5    0.
3.5  0.5    0.
4  0.5    0.
4.5  0.5    0.
5  0.5    0.
5.5  0.5    0.
6  0.5    0.
6.5  0.5    0.
7  0.5    0.
7.5  0.5    0.
8  0.5    0.
</DataArray>
</Points>
<Cells>
<DataArray type="Int64" Name="connectivity" format="ascii">
0  1  2  22  34  33  32  21  
2  3  4  23  36  35  34  22  
4  5  6  24  38  37  36  23  
6  7  8  25  40  39  38  24  
8  9  10  26  42  41  40  25  
10  11  12  27  44  43  42  26  
12  13  14  28  46  45  44  27  
14  15  16  29  48  47  46  28  
</DataArray>
<DataArray type="Int64" Name="offsets" format="ascii">
8
16
24
32
40
48
56
64
</DataArray>
<DataArray type="UInt8" Name="types" format="ascii" RangeMin="9" RangeMax="9">
9
9
9
9
9
9
9
9
</DataArray>
</Cells>
</Piece>
</UnstructuredGrid>
</VTKFile>
