<?xml version="1.0"?>
<VTKFile type="UnstructuredGrid" version="0.1" byte_order="LittleEndian" compressor="vtkZLibDataCompressor">
<UnstructuredGrid>
<Piece NumberOfPoints="43" NumberOfCells="8">
<PointData>
<DataArray type="Float64" Name="displacement"NumberOfComponents="3" format="ascii" >
0  0    0.
0.0470448  0.0678127    0.
0.0653726  0.248017    0.
0.035182  0.518313    0.
-0.0501756  0.858626    0.
-0.189607  1.24783    0.
-0.378326  1.67274    0.
-0.610664  2.12044    0.
-0.880006  2.58487    0.
-1.18005  3.0591    0.
-1.50468  3.54048    0.
-1.84855  4.02513    0.
-2.20649  4.51213    0.
-2.57406  4.99894    0.
-2.94665  5.48533    0.
-3.32034  5.96974    0.
-3.69101  6.45167    0.
0  0    0.
-0.0365521  0.219877    0.
-0.21947  0.788198    0.
-0.584904  1.55936    0.
-1.10593  2.43831    0.
-1.74027  3.37117    0.
-2.4466  4.32965    0.
-3.18833  5.29857    0.
-3.93221  6.26761    0.
0  0    0.
-0.0625572  0.0548431    0.
-0.141116  0.201116    0.
-0.248693  0.428924    0.
-0.39266  0.720519    0.
-0.574719  1.06611    0.
-0.794433  1.44808    0.
-1.04893  1.86018    0.
-1.33401  2.29263    0.
-1.64496  2.74199    0.
-1.97721  3.2023    0.
-2.32609  3.67196    0.
-2.68736  4.14743    0.
-3.05666  4.62802    0.
-3.4301  5.11146    0.
-3.80335  5.59784    0.
-4.17265  6.08482    0.
</DataArray>
<DataArray type="Float64" Name="sigma_xx" NumberOfComponents="1" format="ascii" >
-0.145055
-0.145055
-0.0577477
0.0295597
0.0945202
0.159481
0.188213
0.216945
0.232868
0.248791
0.25614
0.263489
0.265579
0.26767
0.271694
0.275717
0.275717
-0.145055
-0.0577477
0.0945202
0.188213
0.232868
0.25614
0.265579
0.271694
0.275717
-0.145055
-0.145055
-0.0577477
0.0295597
0.0945202
0.159481
0.188213
0.216945
0.232868
0.248791
0.25614
0.263489
0.265579
0.26767
0.271694
0.275717
0.275717
</DataArray>
<DataArray type="Float64" Name="sigma_yy" NumberOfComponents="1" format="ascii" >
-0.214916
-0.214916
-0.221166
-0.227416
-0.166298
-0.105181
-0.0809716
-0.056762
-0.0399004
-0.0230387
-0.0153172
-0.00759572
-0.0064205
-0.00524527
0.00819125
0.0216278
0.0216278
-0.214916
-0.221166
-0.166298
-0.0809716
-0.0399004
-0.0153172
-0.0064205
0.00819125
0.0216278
-0.214916
-0.214916
-0.221166
-0.227416
-0.166298
-0.105181
-0.0809716
-0.056762
-0.0399004
-0.0230387
-0.0153172
-0.00759572
-0.0064205
-0.00524527
0.00819125
0.0216278
0.0216278
</DataArray>
<DataArray type="Float64" Name="sigma_xy" NumberOfComponents="1" format="ascii" >
0.300053
0.300053
0.277201
0.254349
0.22657
0.198792
0.173851
0.148911
0.131222
0.113534
0.102292
0.0910509
0.0855476
0.0800443
0.0797508
0.0794574
0.0794574
0.300053
0.277201
0.22657
0.173851
0.131222
0.102292
0.0855476
0.0797508
0.0794574
0.300053
0.300053
0.277201
0.254349
0.22657
0.198792
0.173851
0.148911
0.131222
0.113534
0.102292
0.0910509
0.0855476
0.0800443
0.0797508
0.0794574
0.0794574
</DataArray>
</PointData>
<CellData>
</CellData>
<Points>
<DataArray type="Float64" Name="Points" NumberOfComponents="3" format="ascii">
0  0    0.
0.5  0    0.
1  0    0.
1.5  0    0.
2  0    0.
2.5  0    0.
3  0    0.
3.5  0    0.
4  0    0.
4.5  0    0.
5  0    0.
5.5  0    0.
6  0    0.
6.5  0    0.
7  0    0.
7.5  0    0.
8  0    0.
0  0.25    0.
1  0.25    0.
2  0.25    0.
3  0.25    0.
4  0.25    0.
5  0.25    0.
6  0.25    0.
7  0.25    0.
8  0.25    0.
0  0.5    0.
0.5  0.5    0.
1  0.5    0.
1.5  0.5    0.
2  0.5    0.
2.5  0.5    0.
3  0.5    0.
3.5  0.5    0.
4  0.5    0.
4.5  0.5    0.
5  0.5    0.
5.5  0.5    0.
6  0.5    0.
6.5  0.5    0.
7  0.5    0.
7.5  0.5    0.
8  0.5    0.
</DataArray>
</Points>
<Cells>
<DataArray type="Int64" Name="connectivity" format="ascii">
0  1  2  22  34  33  32  21  
2  3  4  23  36  35  34  22  
4  5  6  24  38  37  36  23  
6  7  8  25  40  39  38  24  
8  9  10  26  42  41  40  25  
10  11  12  27  44  43  42  26  
12  13  14  28  46  45  44  27  
14  15  16  29  48  47  46  28  
</DataArray>
<DataArray type="Int64" Name="offsets" format="ascii">
8
16
24
32
40
48
56
64
</DataArray>
<DataArray type="UInt8" Name="types" format="ascii" RangeMin="9" RangeMax="9">
9
9
9
9
9
9
9
9
</DataArray>
</Cells>
</Piece>
</UnstructuredGrid>
</VTKFile>
