<?xml version="1.0"?>
<VTKFile type="UnstructuredGrid" version="0.1" byte_order="LittleEndian" compressor="vtkZLibDataCompressor">
<UnstructuredGrid>
<Piece NumberOfPoints="43" NumberOfCells="8">
<PointData>
<DataArray type="Float64" Name="displacement"NumberOfComponents="3" format="ascii" >
0  0    0.
0.0318161  0.04048    0.
0.0524464  0.153223    0.
0.0517102  0.329831    0.
0.0242438  0.5625    0.
-0.0323556  0.840623    0.
-0.117805  1.15667    0.
-0.231694  1.50226    0.
-0.371755  1.87227    0.
-0.535784  2.26054    0.
-0.720495  2.66358    0.
-0.923108  3.07693    0.
-1.14003  3.4983    0.
-1.36835  3.92431    0.
-1.60438  4.35338    0.
-1.8453  4.78295    0.
-2.08741  5.21156    0.
0  0    0.
-0.0149514  0.140188    0.
-0.0965873  0.528863    0.
-0.276059  1.09787    0.
-0.555086  1.79034    0.
-0.919806  2.56302    0.
-1.34879  3.38483    0.
-1.81773  4.23331    0.
-2.30155  5.09083    0.
0  0    0.
-0.0379432  0.0352615    0.
-0.0834498  0.133466    0.
-0.142407  0.290223    0.
-0.2195  0.498101    0.
-0.316702  0.751693    0.
-0.436215  1.04146    0.
-0.577541  1.36309    0.
-0.740068  1.70984    0.
-0.92159  2.07833    0.
-1.12034  2.46334    0.
-1.33336  2.86248    0.
-1.5583  3.27187    0.
-1.79184  3.68981    0.
-2.03138  4.11329    0.
-2.27337  4.54105    0.
-2.51542  4.97043    0.
</DataArray>
<DataArray type="Float64" Name="sigma_xx" NumberOfComponents="1" format="ascii" >
-0.0646081
-0.0646081
-0.0401784
-0.0157488
0.00895433
0.0336574
0.0477315
0.0618057
0.0718613
0.0819169
0.0878731
0.0938292
0.096847
0.0998649
0.10259
0.105315
0.105315
-0.0646081
-0.0401784
0.00895433
0.0477315
0.0718613
0.0878731
0.096847
0.10259
0.105315
-0.0646081
-0.0646081
-0.0401784
-0.0157488
0.00895433
0.0336574
0.0477315
0.0618057
0.0718613
0.0819169
0.0878731
0.0938292
0.096847
0.0998649
0.10259
0.105315
0.105315
</DataArray>
<DataArray type="Float64" Name="sigma_yy" NumberOfComponents="1" format="ascii" >
-0.0905329
-0.0905329
-0.100277
-0.110022
-0.086434
-0.0628461
-0.0516071
-0.0403681
-0.0304462
-0.0205243
-0.0148086
-0.00909288
-0.00601283
-0.00293278
0.00754708
0.0180269
0.0180269
-0.0905329
-0.100277
-0.086434
-0.0516071
-0.0304462
-0.0148086
-0.00601283
0.00754708
0.0180269
-0.0905329
-0.0905329
-0.100277
-0.110022
-0.086434
-0.0628461
-0.0516071
-0.0403681
-0.0304462
-0.0205243
-0.0148086
-0.00909288
-0.00601283
-0.00293278
0.00754708
0.0180269
0.0180269
</DataArray>
<DataArray type="Float64" Name="sigma_xy" NumberOfComponents="1" format="ascii" >
0.131256
0.131256
0.126696
0.122136
0.115974
0.109812
0.102944
0.0960762
0.0903384
0.0846006
0.0802833
0.0759659
0.0732952
0.0706245
0.0696282
0.068632
0.068632
0.131256
0.126696
0.115974
0.102944
0.0903384
0.0802833
0.0732952
0.0696282
0.068632
0.131256
0.131256
0.126696
0.122136
0.115974
0.109812
0.102944
0.0960762
0.0903384
0.0846006
0.0802833
0.0759659
0.0732952
0.0706245
0.0696282
0.068632
0.068632
</DataArray>
</PointData>
<CellData>
</CellData>
<Points>
<DataArray type="Float64" Name="Points" NumberOfComponents="3" format="ascii">
0  0    0.
0.5  0    0.
1  0    0.
1.5  0    0.
2  0    0.
2.5  0    0.
3  0    0.
3.5  0    0.
4  0    0.
4.5  0    0.
5  0    0.
5.5  0    0.
6  0    0.
6.5  0    0.
7  0    0.
7.5  0    0.
8  0    0.
0  0.25    0.
1  0.25    0.
2  0.25    0.
3  0.25    0.
4  0.25    0.
5  0.25    0.
6  0.25    0.
7  0.25    0.
8  0.25    0.
0  0.5    0.
0.5  0.5    0.
1  0.5    0.
1.5  0.5    0.
2  0.5    0.
2.5  0.5    0.
3  0.5    0.
3.5  0.5    0.
4  0.5    0.
4.5  0.5    0.
5  0.5    0.
5.5  0.5    0.
6  0.5    0.
6.5  0.5    0.
7  0.5    0.
7.5  0.5    0.
8  0.5    0.
</DataArray>
</Points>
<Cells>
<DataArray type="Int64" Name="connectivity" format="ascii">
0  1  2  22  34  33  32  21  
2  3  4  23  36  35  34  22  
4  5  6  24  38  37  36  23  
6  7  8  25  40  39  38  24  
8  9  10  26  42  41  40  25  
10  11  12  27  44  43  42  26  
12  13  14  28  46  45  44  27  
14  15  16  29  48  47  46  28  
</DataArray>
<DataArray type="Int64" Name="offsets" format="ascii">
8
16
24
32
40
48
56
64
</DataArray>
<DataArray type="UInt8" Name="types" format="ascii" RangeMin="9" RangeMax="9">
9
9
9
9
9
9
9
9
</DataArray>
</Cells>
</Piece>
</UnstructuredGrid>
</VTKFile>
