<?xml version="1.0"?>
<VTKFile type="UnstructuredGrid" version="0.1" byte_order="LittleEndian" compressor="vtkZLibDataCompressor">
<UnstructuredGrid>
<Piece NumberOfPoints="43" NumberOfCells="8">
<PointData>
<DataArray type="Float64" Name="displacement"NumberOfComponents="3" format="ascii" >
0  0    0.
0.0368505  0.0486815    0.
0.0579157  0.182542    0.
0.0499622  0.389732    0.
0.00664752  0.659206    0.
-0.0740619  0.977165    0.
-0.19102  1.33412    0.
-0.342585  1.71991    0.
-0.52529  2.12872    0.
-0.735668  2.55377    0.
-0.969454  2.99154    0.
-1.2229  3.4375    0.
-1.49172  3.88968    0.
-1.77232  4.34484    0.
-2.06053  4.80182    0.
-2.35299  5.25832    0.
-2.6457  5.71324    0.
0  0    0.
-0.0207451  0.165276    0.
-0.131319  0.614631    0.
-0.367875  1.25794    0.
-0.726371  2.02489    0.
-1.18493  2.86642    0.
-1.71516  3.75049    0.
-2.28755  4.65603    0.
-2.87306  5.56747    0.
0  0    0.
-0.0454337  0.0414076    0.
-0.100928  0.155348    0.
-0.174506  0.33597    0.
-0.271973  0.573041    0.
-0.395544  0.859815    0.
-0.547057  1.18416    0.
-0.725514  1.54101    0.
-0.929374  1.92236    0.
-1.15568  2.32462    0.
-1.40177  2.74206    0.
-1.66403  3.17241    0.
-1.9394  3.61173    0.
-2.22406  4.05861    0.
-2.51484  4.51017    0.
-2.80781  4.96558    0.
-3.10002  5.42225    0.
</DataArray>
<DataArray type="Float64" Name="sigma_xx" NumberOfComponents="1" format="ascii" >
-0.0877051
-0.0877051
-0.0493293
-0.0109536
0.0244644
0.0598825
0.0787207
0.097559
0.110054
0.12255
0.129449
0.136348
0.139443
0.142539
0.145727
0.148914
0.148914
-0.0877051
-0.0493293
0.0244644
0.0787207
0.110054
0.129449
0.139443
0.145727
0.148914
-0.0877051
-0.0877051
-0.0493293
-0.0109536
0.0244644
0.0598825
0.0787207
0.097559
0.110054
0.12255
0.129449
0.136348
0.139443
0.142539
0.145727
0.148914
0.148914
</DataArray>
<DataArray type="Float64" Name="sigma_yy" NumberOfComponents="1" format="ascii" >
-0.124534
-0.124534
-0.135094
-0.145655
-0.112117
-0.0785789
-0.0633345
-0.04809
-0.0355694
-0.0230489
-0.0162888
-0.00952872
-0.00659957
-0.00367043
0.00789209
0.0194546
0.0194546
-0.124534
-0.135094
-0.112117
-0.0633345
-0.0355694
-0.0162888
-0.00659957
0.00789209
0.0194546
-0.124534
-0.124534
-0.135094
-0.145655
-0.112117
-0.0785789
-0.0633345
-0.04809
-0.0355694
-0.0230489
-0.0162888
-0.00952872
-0.00659957
-0.00367043
0.00789209
0.0194546
0.0194546
</DataArray>
<DataArray type="Float64" Name="sigma_xy" NumberOfComponents="1" format="ascii" >
0.173955
0.173955
0.165903
0.157851
0.147126
0.136402
0.125202
0.114003
0.105067
0.0961322
0.0897191
0.083306
0.0795538
0.0758017
0.0746344
0.0734672
0.0734672
0.173955
0.165903
0.147126
0.125202
0.105067
0.0897191
0.0795538
0.0746344
0.0734672
0.173955
0.173955
0.165903
0.157851
0.147126
0.136402
0.125202
0.114003
0.105067
0.0961322
0.0897191
0.083306
0.0795538
0.0758017
0.0746344
0.0734672
0.0734672
</DataArray>
</PointData>
<CellData>
</CellData>
<Points>
<DataArray type="Float64" Name="Points" NumberOfComponents="3" format="ascii">
0  0    0.
0.5  0    0.
1  0    0.
1.5  0    0.
2  0    0.
2.5  0    0.
3  0    0.
3.5  0    0.
4  0    0.
4.5  0    0.
5  0    0.
5.5  0    0.
6  0    0.
6.5  0    0.
7  0    0.
7.5  0    0.
8  0    0.
0  0.25    0.
1  0.25    0.
2  0.25    0.
3  0.25    0.
4  0.25    0.
5  0.25    0.
6  0.25    0.
7  0.25    0.
8  0.25    0.
0  0.5    0.
0.5  0.5    0.
1  0.5    0.
1.5  0.5    0.
2  0.5    0.
2.5  0.5    0.
3  0.5    0.
3.5  0.5    0.
4  0.5    0.
4.5  0.5    0.
5  0.5    0.
5.5  0.5    0.
6  0.5    0.
6.5  0.5    0.
7  0.5    0.
7.5  0.5    0.
8  0.5    0.
</DataArray>
</Points>
<Cells>
<DataArray type="Int64" Name="connectivity" format="ascii">
0  1  2  22  34  33  32  21  
2  3  4  23  36  35  34  22  
4  5  6  24  38  37  36  23  
6  7  8  25  40  39  38  24  
8  9  10  26  42  41  40  25  
10  11  12  27  44  43  42  26  
12  13  14  28  46  45  44  27  
14  15  16  29  48  47  46  28  
</DataArray>
<DataArray type="Int64" Name="offsets" format="ascii">
8
16
24
32
40
48
56
64
</DataArray>
<DataArray type="UInt8" Name="types" format="ascii" RangeMin="9" RangeMax="9">
9
9
9
9
9
9
9
9
</DataArray>
</Cells>
</Piece>
</UnstructuredGrid>
</VTKFile>
