<?xml version="1.0"?>
<VTKFile type="UnstructuredGrid" version="0.1" byte_order="LittleEndian" compressor="vtkZLibDataCompressor">
<UnstructuredGrid>
<Piece NumberOfPoints="43" NumberOfCells="8">
<PointData>
<DataArray type="Float64" Name="displacement"NumberOfComponents="3" format="ascii" >
0  0    0.
0.0483311  0.0705267    0.
0.065903  0.256978    0.
0.0321092  0.535331    0.
-0.0594923  0.884145    0.
-0.207129  1.28135    0.
-0.405368  1.71338    0.
-0.647915  2.1671    0.
-0.927729  2.63658    0.
-1.23816  3.11497    0.
-1.57293  3.5998    0.
-1.92653  4.08733    0.
-2.29375  4.57679    0.
-2.67009  5.06574    0.
-3.05095  5.55405    0.
-3.43234  6.04026    0.
-3.81019  6.5239    0.
0  0    0.
-0.0390083  0.227216    0.
-0.232396  0.810138    0.
-0.614972  1.59526    0.
-1.15588  2.48501    0.
-1.81013  3.42567    0.
-2.53507  4.38988    0.
-3.29363  5.36335    0.
-4.0523  6.33636    0.
0  0    0.
-0.0649495  0.0566614    0.
-0.146728  0.207086    0.
-0.259035  0.440759    0.
-0.409336  0.738806    0.
-0.599143  1.09105    0.
-0.827576  1.47918    0.
-1.09145  1.89688    0.
-1.38618  2.33424    0.
-1.70684  2.7879    0.
-2.04864  3.25193    0.
-2.40681  3.72485    0.
-2.77701  4.20321    0.
-3.15483  4.6864    0.
-3.53636  5.17226    0.
-3.91724  5.66097    0.
-4.2936  6.15021    0.
</DataArray>
<DataArray type="Float64" Name="sigma_xx" NumberOfComponents="1" format="ascii" >
-0.153244
-0.153244
-0.0570871
0.0390702
0.108487
0.177903
0.207761
0.237619
0.253755
0.269891
0.277145
0.2844
0.286261
0.288123
0.292262
0.296401
0.296401
-0.153244
-0.0570871
0.108487
0.207761
0.253755
0.277145
0.286261
0.292262
0.296401
-0.153244
-0.153244
-0.0570871
0.0390702
0.108487
0.177903
0.207761
0.237619
0.253755
0.269891
0.277145
0.2844
0.286261
0.288123
0.292262
0.296401
0.296401
</DataArray>
<DataArray type="Float64" Name="sigma_yy" NumberOfComponents="1" format="ascii" >
-0.228707
-0.228707
-0.233583
-0.238459
-0.173108
-0.107758
-0.0824279
-0.057098
-0.039841
-0.022584
-0.0148671
-0.00715015
-0.00633386
-0.00551757
0.00819826
0.0219141
0.0219141
-0.228707
-0.233583
-0.173108
-0.0824279
-0.039841
-0.0148671
-0.00633386
0.00819826
0.0219141
-0.228707
-0.228707
-0.233583
-0.238459
-0.173108
-0.107758
-0.0824279
-0.057098
-0.039841
-0.022584
-0.0148671
-0.00715015
-0.00633386
-0.00551757
0.00819826
0.0219141
0.0219141
</DataArray>
<DataArray type="Float64" Name="sigma_xy" NumberOfComponents="1" format="ascii" >
0.320814
0.320814
0.294962
0.269111
0.23819
0.20727
0.180088
0.152906
0.133955
0.115003
0.10318
0.0913566
0.085759
0.0801615
0.0801924
0.0802234
0.0802234
0.320814
0.294962
0.23819
0.180088
0.133955
0.10318
0.085759
0.0801924
0.0802234
0.320814
0.320814
0.294962
0.269111
0.23819
0.20727
0.180088
0.152906
0.133955
0.115003
0.10318
0.0913566
0.085759
0.0801615
0.0801924
0.0802234
0.0802234
</DataArray>
</PointData>
<CellData>
</CellData>
<Points>
<DataArray type="Float64" Name="Points" NumberOfComponents="3" format="ascii">
0  0    0.
0.5  0    0.
1  0    0.
1.5  0    0.
2  0    0.
2.5  0    0.
3  0    0.
3.5  0    0.
4  0    0.
4.5  0    0.
5  0    0.
5.5  0    0.
6  0    0.
6.5  0    0.
7  0    0.
7.5  0    0.
8  0    0.
0  0.25    0.
1  0.25    0.
2  0.25    0.
3  0.25    0.
4  0.25    0.
5  0.25    0.
6  0.25    0.
7  0.25    0.
8  0.25    0.
0  0.5    0.
0.5  0.5    0.
1  0.5    0.
1.5  0.5    0.
2  0.5    0.
2.5  0.5    0.
3  0.5    0.
3.5  0.5    0.
4  0.5    0.
4.5  0.5    0.
5  0.5    0.
5.5  0.5    0.
6  0.5    0.
6.5  0.5    0.
7  0.5    0.
7.5  0.5    0.
8  0.5    0.
</DataArray>
</Points>
<Cells>
<DataArray type="Int64" Name="connectivity" format="ascii">
0  1  2  22  34  33  32  21  
2  3  4  23  36  35  34  22  
4  5  6  24  38  37  36  23  
6  7  8  25  40  39  38  24  
8  9  10  26  42  41  40  25  
10  11  12  27  44  43  42  26  
12  13  14  28  46  45  44  27  
14  15  16  29  48  47  46  28  
</DataArray>
<DataArray type="Int64" Name="offsets" format="ascii">
8
16
24
32
40
48
56
64
</DataArray>
<DataArray type="UInt8" Name="types" format="ascii" RangeMin="9" RangeMax="9">
9
9
9
9
9
9
9
9
</DataArray>
</Cells>
</Piece>
</UnstructuredGrid>
</VTKFile>
