<?xml version="1.0"?>
<VTKFile type="UnstructuredGrid" version="0.1" byte_order="LittleEndian" compressor="vtkZLibDataCompressor">
<UnstructuredGrid>
<Piece NumberOfPoints="43" NumberOfCells="8">
<PointData>
<DataArray type="Float64" Name="displacement"NumberOfComponents="3" format="ascii" >
0  0    0.
0.0425947  0.0589843    0.
0.062782  0.218311    0.
0.0436289  0.460891    0.
-0.0217499  0.770994    0.
-0.134087  1.13078    0.
-0.290514  1.52856    0.
-0.487348  1.95239    0.
-0.719426  2.39613    0.
-0.981678  2.85269    0.
-1.26874  3.31891    0.
-1.57586  3.79052    0.
-1.89816  4.26609    0.
-2.23148  4.74274    0.
-2.5713  5.21985    0.
-2.91387  5.69553    0.
-3.25507  6.16907    0.
0  0    0.
-0.0289058  0.195327    0.
-0.177956  0.712418    0.
-0.485403  1.43156    0.
-0.936182  2.26768    0.
-1.49734  3.16768    0.
-2.13276  4.10078    0.
-2.80827  5.04888    0.
-3.49189  5.99941    0.
0  0    0.
-0.0547141  0.0487853    0.
-0.122698  0.18084    0.
-0.214692  0.388221    0.
-0.337544  0.65677    0.
-0.493378  0.978055    0.
-0.683021  1.33684    0.
-0.904556  1.72731    0.
-1.15504  2.1403    0.
-1.43056  2.57221    0.
-1.72733  3.01702    0.
-2.04111  3.47281    0.
-2.36809  3.93579    0.
-2.70408  4.40494    0.
-3.04543  4.87769    0.
-3.38793  5.35375    0.
-3.72813  5.83066    0.
</DataArray>
<DataArray type="Float64" Name="sigma_xx" NumberOfComponents="1" format="ascii" >
-0.118334
-0.118334
-0.0565364
0.00526086
0.056031
0.106801
0.13133
0.155859
0.170628
0.185397
0.192814
0.200231
0.202949
0.205668
0.209324
0.21298
0.21298
-0.118334
-0.0565364
0.056031
0.13133
0.170628
0.192814
0.202949
0.209324
0.21298
-0.118334
-0.118334
-0.0565364
0.00526086
0.056031
0.106801
0.13133
0.155859
0.170628
0.185397
0.192814
0.200231
0.202949
0.205668
0.209324
0.21298
0.21298
</DataArray>
<DataArray type="Float64" Name="sigma_yy" NumberOfComponents="1" format="ascii" >
-0.171581
-0.171581
-0.180982
-0.190382
-0.142587
-0.0947925
-0.0745402
-0.0542879
-0.0390916
-0.0238953
-0.0163767
-0.00885812
-0.0066728
-0.00448749
0.00811247
0.0207124
0.0207124
-0.171581
-0.180982
-0.142587
-0.0745402
-0.0390916
-0.0163767
-0.0066728
0.00811247
0.0207124
-0.171581
-0.171581
-0.180982
-0.190382
-0.142587
-0.0947925
-0.0745402
-0.0542879
-0.0390916
-0.0238953
-0.0163767
-0.00885812
-0.0066728
-0.00448749
0.00811247
0.0207124
0.0207124
</DataArray>
<DataArray type="Float64" Name="sigma_xy" NumberOfComponents="1" format="ascii" >
0.237348
0.237348
0.222627
0.207907
0.189126
0.170345
0.152272
0.134198
0.120651
0.107104
0.0979801
0.0888567
0.0839559
0.0790551
0.0780795
0.0771039
0.0771039
0.237348
0.222627
0.189126
0.152272
0.120651
0.0979801
0.0839559
0.0780795
0.0771039
0.237348
0.237348
0.222627
0.207907
0.189126
0.170345
0.152272
0.134198
0.120651
0.107104
0.0979801
0.0888567
0.0839559
0.0790551
0.0780795
0.0771039
0.0771039
</DataArray>
</PointData>
<CellData>
</CellData>
<Points>
<DataArray type="Float64" Name="Points" NumberOfComponents="3" format="ascii">
0  0    0.
0.5  0    0.
1  0    0.
1.5  0    0.
2  0    0.
2.5  0    0.
3  0    0.
3.5  0    0.
4  0    0.
4.5  0    0.
5  0    0.
5.5  0    0.
6  0    0.
6.5  0    0.
7  0    0.
7.5  0    0.
8  0    0.
0  0.25    0.
1  0.25    0.
2  0.25    0.
3  0.25    0.
4  0.25    0.
5  0.25    0.
6  0.25    0.
7  0.25    0.
8  0.25    0.
0  0.5    0.
0.5  0.5    0.
1  0.5    0.
1.5  0.5    0.
2  0.5    0.
2.5  0.5    0.
3  0.5    0.
3.5  0.5    0.
4  0.5    0.
4.5  0.5    0.
5  0.5    0.
5.5  0.5    0.
6  0.5    0.
6.5  0.5    0.
7  0.5    0.
7.5  0.5    0.
8  0.5    0.
</DataArray>
</Points>
<Cells>
<DataArray type="Int64" Name="connectivity" format="ascii">
0  1  2  22  34  33  32  21  
2  3  4  23  36  35  34  22  
4  5  6  24  38  37  36  23  
6  7  8  25  40  39  38  24  
8  9  10  26  42  41  40  25  
10  11  12  27  44  43  42  26  
12  13  14  28  46  45  44  27  
14  15  16  29  48  47  46  28  
</DataArray>
<DataArray type="Int64" Name="offsets" format="ascii">
8
16
24
32
40
48
56
64
</DataArray>
<DataArray type="UInt8" Name="types" format="ascii" RangeMin="9" RangeMax="9">
9
9
9
9
9
9
9
9
</DataArray>
</Cells>
</Piece>
</UnstructuredGrid>
</VTKFile>
