<?xml version="1.0"?>
<VTKFile type="UnstructuredGrid" version="0.1" byte_order="LittleEndian" compressor="vtkZLibDataCompressor">
<UnstructuredGrid>
<Piece NumberOfPoints="43" NumberOfCells="8">
<PointData>
<DataArray type="Float64" Name="displacement"NumberOfComponents="3" format="ascii" >
0  0    0.
0.00823732  0.00909868    0.
0.0158485  0.0352371    0.
0.021872  0.0774763    0.
0.0258171  0.135    0.
0.0272394  0.206341    0.
0.0262776  0.290234    0.
0.022595  0.385346    0.
0.0163979  0.490555    0.
0.00752795  0.604546    0.
-0.00364885  0.726201    0.
-0.017184  0.854257    0.
-0.032618  0.987633    0.
-0.0499237  1.12511    0.
-0.0685752  1.2656    0.
-0.0884984  1.40798    0.
-0.109114  1.55109    0.
0  0    0.
-0.000875875  0.0338598    0.
-0.00595077  0.13247    0.
-0.0179181  0.285828    0.
-0.037865  0.484234    0.
-0.0656205  0.718126    0.
-0.10001  0.978198    0.
-0.139144  1.25536    0.
-0.180665  1.5407    0.
0  0    0.
-0.00858785  0.00879648    0.
-0.0176649  0.0340569    0.
-0.0273208  0.0750283    0.
-0.0378639  0.130872    0.
-0.0493332  0.200432    0.
-0.0622655  0.282291    0.
-0.0764975  0.375416    0.
-0.0922795  0.478571    0.
-0.109305  0.590695    0.
-0.127719  0.710542    0.
-0.147104  0.837072    0.
-0.167496  0.969085    0.
-0.188388  1.10554    0.
-0.209752  1.24526    0.
-0.231042  1.38721    0.
-0.252256  1.53033    0.
</DataArray>
<DataArray type="Float64" Name="sigma_xx" NumberOfComponents="1" format="ascii" >
-0.00396961
-0.00396961
-0.00302201
-0.0020744
-0.000816923
0.000440554
0.00128242
0.00212428
0.00286281
0.00360135
0.00412171
0.00464207
0.00502146
0.00540086
0.00571619
0.00603151
0.00603151
-0.00396961
-0.00302201
-0.000816923
0.00128242
0.00286281
0.00412171
0.00502146
0.00571619
0.00603151
-0.00396961
-0.00396961
-0.00302201
-0.0020744
-0.000816923
0.000440554
0.00128242
0.00212428
0.00286281
0.00360135
0.00412171
0.00464207
0.00502146
0.00540086
0.00571619
0.00603151
0.00603151
</DataArray>
<DataArray type="Float64" Name="sigma_yy" NumberOfComponents="1" format="ascii" >
-0.00542598
-0.00542598
-0.006335
-0.00724402
-0.00599322
-0.00474243
-0.00409075
-0.00343907
-0.00272166
-0.00200425
-0.00151493
-0.00102562
-0.000392386
0.000240843
0.00296923
0.00569762
0.00569762
-0.00542598
-0.006335
-0.00599322
-0.00409075
-0.00272166
-0.00151493
-0.000392386
0.00296923
0.00569762
-0.00542598
-0.00542598
-0.006335
-0.00724402
-0.00599322
-0.00474243
-0.00409075
-0.00343907
-0.00272166
-0.00200425
-0.00151493
-0.00102562
-0.000392386
0.000240843
0.00296923
0.00569762
0.00569762
</DataArray>
<DataArray type="Float64" Name="sigma_xy" NumberOfComponents="1" format="ascii" >
0.0222849
0.0222849
0.0221542
0.0220235
0.0219752
0.0219269
0.0218295
0.0217321
0.0216465
0.0215608
0.0214863
0.0214119
0.0213581
0.0213044
0.0212803
0.0212561
0.0212561
0.0222849
0.0221542
0.0219752
0.0218295
0.0216465
0.0214863
0.0213581
0.0212803
0.0212561
0.0222849
0.0222849
0.0221542
0.0220235
0.0219752
0.0219269
0.0218295
0.0217321
0.0216465
0.0215608
0.0214863
0.0214119
0.0213581
0.0213044
0.0212803
0.0212561
0.0212561
</DataArray>
</PointData>
<CellData>
</CellData>
<Points>
<DataArray type="Float64" Name="Points" NumberOfComponents="3" format="ascii">
0  0    0.
0.5  0    0.
1  0    0.
1.5  0    0.
2  0    0.
2.5  0    0.
3  0    0.
3.5  0    0.
4  0    0.
4.5  0    0.
5  0    0.
5.5  0    0.
6  0    0.
6.5  0    0.
7  0    0.
7.5  0    0.
8  0    0.
0  0.25    0.
1  0.25    0.
2  0.25    0.
3  0.25    0.
4  0.25    0.
5  0.25    0.
6  0.25    0.
7  0.25    0.
8  0.25    0.
0  0.5    0.
0.5  0.5    0.
1  0.5    0.
1.5  0.5    0.
2  0.5    0.
2.5  0.5    0.
3  0.5    0.
3.5  0.5    0.
4  0.5    0.
4.5  0.5    0.
5  0.5    0.
5.5  0.5    0.
6  0.5    0.
6.5  0.5    0.
7  0.5    0.
7.5  0.5    0.
8  0.5    0.
</DataArray>
</Points>
<Cells>
<DataArray type="Int64" Name="connectivity" format="ascii">
0  1  2  22  34  33  32  21  
2  3  4  23  36  35  34  22  
4  5  6  24  38  37  36  23  
6  7  8  25  40  39  38  24  
8  9  10  26  42  41  40  25  
10  11  12  27  44  43  42  26  
12  13  14  28  46  45  44  27  
14  15  16  29  48  47  46  28  
</DataArray>
<DataArray type="Int64" Name="offsets" format="ascii">
8
16
24
32
40
48
56
64
</DataArray>
<DataArray type="UInt8" Name="types" format="ascii" RangeMin="9" RangeMax="9">
9
9
9
9
9
9
9
9
</DataArray>
</Cells>
</Piece>
</UnstructuredGrid>
</VTKFile>
