<?xml version="1.0"?>
<VTKFile type="UnstructuredGrid" version="0.1" byte_order="LittleEndian" compressor="vtkZLibDataCompressor">
<UnstructuredGrid>
<Piece NumberOfPoints="43" NumberOfCells="8">
<PointData>
<DataArray type="Float64" Name="displacement"NumberOfComponents="3" format="ascii" >
0  0    0.
0.0250604  0.0304576    0.
0.0436127  0.116432    0.
0.0490719  0.252839    0.
0.0377039  0.435063    0.
0.00735964  0.656086    0.
-0.042101  0.910749    0.
-0.11115  1.19311    0.
-0.198618  1.49921    0.
-0.303595  1.82421    0.
-0.423971  2.16499    0.
-0.558201  2.51766    0.
-0.70372  2.87983    0.
-0.858681  3.2483    0.
-1.02027  3.62114    0.
-1.18657  3.99573    0.
-1.35463  4.37022    0.
0  0    0.
-0.00889597  0.108037    0.
-0.0587192  0.413892    0.
-0.171528  0.872939    0.
-0.351984  1.44529    0.
-0.593806  2.09741    0.
-0.884016  2.80232    0.
-1.20606  3.53815    0.
-1.54171  4.28626    0.
0  0    0.
-0.0286693  0.0273678    0.
-0.062061  0.104577    0.
-0.103625  0.228724    0.
-0.156478  0.395242    0.
-0.221991  0.600265    0.
-0.302246  0.837321    0.
-0.397046  1.10316    0.
-0.506537  1.39282    0.
-0.629302  1.70344    0.
-0.764563  2.03081    0.
-0.910227  2.3726    0.
-1.06492  2.72539    0.
-1.22611  3.08727    0.
-1.39211  3.45532    0.
-1.56015  3.82791    0.
-1.72866  4.20246    0.
</DataArray>
<DataArray type="Float64" Name="sigma_xx" NumberOfComponents="1" format="ascii" >
-0.0392762
-0.0392762
-0.0268146
-0.014353
-0.000345448
0.0136621
0.0222304
0.0307987
0.0374498
0.0441009
0.0483496
0.0525984
0.0550235
0.0574485
0.0594509
0.0614533
0.0614533
-0.0392762
-0.0268146
-0.000345448
0.0222304
0.0374498
0.0483496
0.0550235
0.0594509
0.0614533
-0.0392762
-0.0392762
-0.0268146
-0.014353
-0.000345448
0.0136621
0.0222304
0.0307987
0.0374498
0.0441009
0.0483496
0.0525984
0.0550235
0.0574485
0.0594509
0.0614533
0.0614533
</DataArray>
<DataArray type="Float64" Name="sigma_yy" NumberOfComponents="1" format="ascii" >
-0.0543804
-0.0543804
-0.0615929
-0.0688054
-0.0552496
-0.0416939
-0.034941
-0.0281881
-0.0217048
-0.0152216
-0.0112174
-0.00721324
-0.00452801
-0.00184278
0.00678236
0.0154075
0.0154075
-0.0543804
-0.0615929
-0.0552496
-0.034941
-0.0217048
-0.0112174
-0.00452801
0.00678236
0.0154075
-0.0543804
-0.0543804
-0.0615929
-0.0688054
-0.0552496
-0.0416939
-0.034941
-0.0281881
-0.0217048
-0.0152216
-0.0112174
-0.00721324
-0.00452801
-0.00184278
0.00678236
0.0154075
0.0154075
</DataArray>
<DataArray type="Float64" Name="sigma_xy" NumberOfComponents="1" format="ascii" >
0.0881263
0.0881263
0.0861527
0.0841791
0.0815971
0.079015
0.0758945
0.072774
0.0700371
0.0673002
0.0651304
0.0629606
0.0615394
0.0601183
0.0595106
0.0589029
0.0589029
0.0881263
0.0861527
0.0815971
0.0758945
0.0700371
0.0651304
0.0615394
0.0595106
0.0589029
0.0881263
0.0881263
0.0861527
0.0841791
0.0815971
0.079015
0.0758945
0.072774
0.0700371
0.0673002
0.0651304
0.0629606
0.0615394
0.0601183
0.0595106
0.0589029
0.0589029
</DataArray>
</PointData>
<CellData>
</CellData>
<Points>
<DataArray type="Float64" Name="Points" NumberOfComponents="3" format="ascii">
0  0    0.
0.5  0    0.
1  0    0.
1.5  0    0.
2  0    0.
2.5  0    0.
3  0    0.
3.5  0    0.
4  0    0.
4.5  0    0.
5  0    0.
5.5  0    0.
6  0    0.
6.5  0    0.
7  0    0.
7.5  0    0.
8  0    0.
0  0.25    0.
1  0.25    0.
2  0.25    0.
3  0.25    0.
4  0.25    0.
5  0.25    0.
6  0.25    0.
7  0.25    0.
8  0.25    0.
0  0.5    0.
0.5  0.5    0.
1  0.5    0.
1.5  0.5    0.
2  0.5    0.
2.5  0.5    0.
3  0.5    0.
3.5  0.5    0.
4  0.5    0.
4.5  0.5    0.
5  0.5    0.
5.5  0.5    0.
6  0.5    0.
6.5  0.5    0.
7  0.5    0.
7.5  0.5    0.
8  0.5    0.
</DataArray>
</Points>
<Cells>
<DataArray type="Int64" Name="connectivity" format="ascii">
0  1  2  22  34  33  32  21  
2  3  4  23  36  35  34  22  
4  5  6  24  38  37  36  23  
6  7  8  25  40  39  38  24  
8  9  10  26  42  41  40  25  
10  11  12  27  44  43  42  26  
12  13  14  28  46  45  44  27  
14  15  16  29  48  47  46  28  
</DataArray>
<DataArray type="Int64" Name="offsets" format="ascii">
8
16
24
32
40
48
56
64
</DataArray>
<DataArray type="UInt8" Name="types" format="ascii" RangeMin="9" RangeMax="9">
9
9
9
9
9
9
9
9
</DataArray>
</Cells>
</Piece>
</UnstructuredGrid>
</VTKFile>
