<?xml version="1.0"?>
<VTKFile type="UnstructuredGrid" version="0.1" byte_order="LittleEndian" compressor="vtkZLibDataCompressor">
<UnstructuredGrid>
<Piece NumberOfPoints="43" NumberOfCells="8">
<PointData>
<DataArray type="Float64" Name="displacement"NumberOfComponents="3" format="ascii" >
0  0    0.
0.0495387  0.0731486    0.
0.0663038  0.265558    0.
0.02895  0.551494    0.
-0.0687063  0.908191    0.
-0.224189  1.31269    0.
-0.431422  1.75111    0.
-0.683507  2.21016    0.
-0.973005  2.68402    0.
-1.29296  3.16597    0.
-1.63694  3.65371    0.
-1.9993  4.14364    0.
-2.37481  4.63512    0.
-2.75893  5.12581    0.
-3.14706  5.61568    0.
-3.53517  6.10333    0.
-3.91922  6.58833    0.
0  0    0.
-0.041424  0.234217    0.
-0.244927  0.830764    0.
-0.64373  1.62856    0.
-1.20309  2.52784    0.
-1.87549  3.47522    0.
-2.61713  4.44426    0.
-3.39056  5.42152    0.
-4.16207  6.3978    0.
0  0    0.
-0.0672524  0.0583994    0.
-0.152125  0.212742    0.
-0.268971  0.45191    0.
-0.425312  0.755932    0.
-0.622457  1.11427    0.
-0.859075  1.50799    0.
-1.13168  1.9307    0.
-1.43532  2.37241    0.
-1.76486  2.82982    0.
-2.11533  3.29708    0.
-2.48186  3.7728    0.
-2.86003  4.25363    0.
-3.24543  4.73904    0.
-3.63407  5.22694    0.
-4.0216  5.71762    0.
-4.40406  6.20877    0.
</DataArray>
<DataArray type="Float64" Name="sigma_xx" NumberOfComponents="1" format="ascii" >
-0.161114
-0.161114
-0.0559614
0.0491913
0.12293
0.196669
0.227533
0.258398
0.27468
0.290963
0.2981
0.305237
0.306865
0.308493
0.312745
0.316998
0.316998
-0.161114
-0.0559614
0.12293
0.227533
0.27468
0.2981
0.306865
0.312745
0.316998
-0.161114
-0.161114
-0.0559614
0.0491913
0.12293
0.196669
0.227533
0.258398
0.27468
0.290963
0.2981
0.305237
0.306865
0.308493
0.312745
0.316998
0.316998
</DataArray>
<DataArray type="Float64" Name="sigma_yy" NumberOfComponents="1" format="ascii" >
-0.242215
-0.242215
-0.245583
-0.24895
-0.179465
-0.10998
-0.083616
-0.0572523
-0.0396629
-0.0220734
-0.0143866
-0.00669984
-0.00624768
-0.00579553
0.00820705
0.0222096
0.0222096
-0.242215
-0.245583
-0.179465
-0.083616
-0.0396629
-0.0143866
-0.00624768
0.00820705
0.0222096
-0.242215
-0.242215
-0.245583
-0.24895
-0.179465
-0.10998
-0.083616
-0.0572523
-0.0396629
-0.0220734
-0.0143866
-0.00669984
-0.00624768
-0.00579553
0.00820705
0.0222096
0.0222096
</DataArray>
<DataArray type="Float64" Name="sigma_xy" NumberOfComponents="1" format="ascii" >
0.341507
0.341507
0.312523
0.283539
0.249422
0.215305
0.185914
0.156523
0.136368
0.116213
0.103864
0.0915156
0.0858716
0.0802275
0.0806271
0.0810267
0.0810267
0.341507
0.312523
0.249422
0.185914
0.136368
0.103864
0.0858716
0.0806271
0.0810267
0.341507
0.341507
0.312523
0.283539
0.249422
0.215305
0.185914
0.156523
0.136368
0.116213
0.103864
0.0915156
0.0858716
0.0802275
0.0806271
0.0810267
0.0810267
</DataArray>
</PointData>
<CellData>
</CellData>
<Points>
<DataArray type="Float64" Name="Points" NumberOfComponents="3" format="ascii">
0  0    0.
0.5  0    0.
1  0    0.
1.5  0    0.
2  0    0.
2.5  0    0.
3  0    0.
3.5  0    0.
4  0    0.
4.5  0    0.
5  0    0.
5.5  0    0.
6  0    0.
6.5  0    0.
7  0    0.
7.5  0    0.
8  0    0.
0  0.25    0.
1  0.25    0.
2  0.25    0.
3  0.25    0.
4  0.25    0.
5  0.25    0.
6  0.25    0.
7  0.25    0.
8  0.25    0.
0  0.5    0.
0.5  0.5    0.
1  0.5    0.
1.5  0.5    0.
2  0.5    0.
2.5  0.5    0.
3  0.5    0.
3.5  0.5    0.
4  0.5    0.
4.5  0.5    0.
5  0.5    0.
5.5  0.5    0.
6  0.5    0.
6.5  0.5    0.
7  0.5    0.
7.5  0.5    0.
8  0.5    0.
</DataArray>
</Points>
<Cells>
<DataArray type="Int64" Name="connectivity" format="ascii">
0  1  2  22  34  33  32  21  
2  3  4  23  36  35  34  22  
4  5  6  24  38  37  36  23  
6  7  8  25  40  39  38  24  
8  9  10  26  42  41  40  25  
10  11  12  27  44  43  42  26  
12  13  14  28  46  45  44  27  
14  15  16  29  48  47  46  28  
</DataArray>
<DataArray type="Int64" Name="offsets" format="ascii">
8
16
24
32
40
48
56
64
</DataArray>
<DataArray type="UInt8" Name="types" format="ascii" RangeMin="9" RangeMax="9">
9
9
9
9
9
9
9
9
</DataArray>
</Cells>
</Piece>
</UnstructuredGrid>
</VTKFile>
