<?xml version="1.0"?>
<VTKFile type="UnstructuredGrid" version="0.1" byte_order="LittleEndian" compressor="vtkZLibDataCompressor">
<UnstructuredGrid>
<Piece NumberOfPoints="43" NumberOfCells="8">
<PointData>
<DataArray type="Float64" Name="displacement"NumberOfComponents="3" format="ascii" >
0  0    0.
0.0287197  0.0357594    0.
0.0485943  0.136021    0.
0.0511736  0.294068    0.
0.0318209  0.503716    0.
-0.0118319  0.756105    0.
-0.0797811  1.04484    0.
-0.172123  1.36268    0.
-0.287165  1.70501    0.
-0.42336  2.06623    0.
-0.577992  2.44296    0.
-0.748867  2.83095    0.
-0.932857  3.22782    0.
-1.12754  3.63022    0.
-1.32959  4.03635    0.
-1.53659  4.4436    0.
-1.74513  4.85027    0.
0  0    0.
-0.0119463  0.125253    0.
-0.0780014  0.476123    0.
-0.225342  0.996066    0.
-0.457624  1.63625    0.
-0.764925  2.3577    0.
-1.12988  3.13085    0.
-1.53171  3.93316    0.
-1.9483  4.7462    0.
0  0    0.
-0.0335908  0.0315999    0.
-0.0733676  0.120168    0.
-0.124033  0.262057    0.
-0.189551  0.45127    0.
-0.271641  0.683145    0.
-0.372525  0.949613    0.
-0.491887  1.24686    0.
-0.629532  1.56895    0.
-0.783646  1.91273    0.
-0.952956  2.27338    0.
-1.13491  2.64852    0.
-1.3276  3.03443    0.
-1.52807  3.42929    0.
-1.73412  3.83006    0.
-1.94252  4.23531    0.
-2.15126  4.64235    0.
</DataArray>
<DataArray type="Float64" Name="sigma_xx" NumberOfComponents="1" format="ascii" >
-0.0521865
-0.0521865
-0.0340399
-0.0158933
0.00341608
0.0227255
0.0341235
0.0455214
0.054001
0.0624806
0.0676936
0.0729067
0.0757094
0.078512
0.0809181
0.0833241
0.0833241
-0.0521865
-0.0340399
0.00341608
0.0341235
0.054001
0.0676936
0.0757094
0.0809181
0.0833241
-0.0521865
-0.0521865
-0.0340399
-0.0158933
0.00341608
0.0227255
0.0341235
0.0455214
0.054001
0.0624806
0.0676936
0.0729067
0.0757094
0.078512
0.0809181
0.0833241
0.0833241
</DataArray>
<DataArray type="Float64" Name="sigma_yy" NumberOfComponents="1" format="ascii" >
-0.0726749
-0.0726749
-0.0813893
-0.0901038
-0.0715553
-0.0530068
-0.0439648
-0.0349228
-0.0266112
-0.0182995
-0.0133445
-0.00838941
-0.00541933
-0.00244924
0.00723907
0.0169274
0.0169274
-0.0726749
-0.0813893
-0.0715553
-0.0439648
-0.0266112
-0.0133445
-0.00541933
0.00723907
0.0169274
-0.0726749
-0.0726749
-0.0813893
-0.0901038
-0.0715553
-0.0530068
-0.0439648
-0.0349228
-0.0266112
-0.0182995
-0.0133445
-0.00838941
-0.00541933
-0.00244924
0.00723907
0.0169274
0.0169274
</DataArray>
<DataArray type="Float64" Name="sigma_xy" NumberOfComponents="1" format="ascii" >
0.109752
0.109752
0.106608
0.103465
0.0992402
0.0950157
0.0901268
0.0852378
0.0810531
0.0768684
0.0736385
0.0704086
0.0683532
0.0662978
0.0654733
0.0646488
0.0646488
0.109752
0.106608
0.0992402
0.0901268
0.0810531
0.0736385
0.0683532
0.0654733
0.0646488
0.109752
0.109752
0.106608
0.103465
0.0992402
0.0950157
0.0901268
0.0852378
0.0810531
0.0768684
0.0736385
0.0704086
0.0683532
0.0662978
0.0654733
0.0646488
0.0646488
</DataArray>
</PointData>
<CellData>
</CellData>
<Points>
<DataArray type="Float64" Name="Points" NumberOfComponents="3" format="ascii">
0  0    0.
0.5  0    0.
1  0    0.
1.5  0    0.
2  0    0.
2.5  0    0.
3  0    0.
3.5  0    0.
4  0    0.
4.5  0    0.
5  0    0.
5.5  0    0.
6  0    0.
6.5  0    0.
7  0    0.
7.5  0    0.
8  0    0.
0  0.25    0.
1  0.25    0.
2  0.25    0.
3  0.25    0.
4  0.25    0.
5  0.25    0.
6  0.25    0.
7  0.25    0.
8  0.25    0.
0  0.5    0.
0.5  0.5    0.
1  0.5    0.
1.5  0.5    0.
2  0.5    0.
2.5  0.5    0.
3  0.5    0.
3.5  0.5    0.
4  0.5    0.
4.5  0.5    0.
5  0.5    0.
5.5  0.5    0.
6  0.5    0.
6.5  0.5    0.
7  0.5    0.
7.5  0.5    0.
8  0.5    0.
</DataArray>
</Points>
<Cells>
<DataArray type="Int64" Name="connectivity" format="ascii">
0  1  2  22  34  33  32  21  
2  3  4  23  36  35  34  22  
4  5  6  24  38  37  36  23  
6  7  8  25  40  39  38  24  
8  9  10  26  42  41  40  25  
10  11  12  27  44  43  42  26  
12  13  14  28  46  45  44  27  
14  15  16  29  48  47  46  28  
</DataArray>
<DataArray type="Int64" Name="offsets" format="ascii">
8
16
24
32
40
48
56
64
</DataArray>
<DataArray type="UInt8" Name="types" format="ascii" RangeMin="9" RangeMax="9">
9
9
9
9
9
9
9
9
</DataArray>
</Cells>
</Piece>
</UnstructuredGrid>
</VTKFile>
